LAMMPS (29 Oct 2020)
  using 6 OpenMP thread(s) per MPI task
#Initialization----------
units       real
boundary p p p
atom_style  full
pair_style   hybrid lj/charmm/coul/long 9.9 10. buck/coul/long 9.9 10.
bond_style      harmonic
angle_style     harmonic
special_bonds   amber
dihedral_style  charmm
kspace_style pppm 1.0e-4
kspace_modify diff ad

#Reading data file(with bonded interactions) and potential file(non bonded)------------
read_data    NPT777_aniso.data
Reading data file ...
  orthogonal box = (-0.89082456 0.35542204 1.9517850) to (61.441406 62.584315 89.906793)
  1 by 1 by 1 MPI processor grid
  reading atoms ...
  16464 atoms
  reading velocities ...
  16464 velocities
  scanning bonds ...
  4 = max bonds/atom
  scanning angles ...
  6 = max angles/atom
  scanning dihedrals ...
  9 = max dihedrals/atom
  reading bonds ...
  9604 bonds
  reading angles ...
  16464 angles
  reading dihedrals ...
  12348 dihedrals
Finding 1-2 1-3 1-4 neighbors ...
  special bond factors lj:    0.0      0.0      0.5     
  special bond factors coul:  0.0      0.0      0.8333333333333334
     4 = max # of 1-2 neighbors
     3 = max # of 1-3 neighbors
     6 = max # of 1-4 neighbors
     7 = max # of special neighbors
  special bonds CPU = 0.006 seconds
  read_data CPU = 0.106 seconds
#read_restart restart.txt
include dlpoly2lammps.nonbonding
 pair_coeff           1           3 lj/charmm/coul/long   1.4000000000000000E-002   2.2645400000000002
 pair_coeff           2           3 lj/charmm/coul/long   5.7400000000000000E-002   2.7500000000000000
 pair_coeff           3           3 lj/charmm/coul/long   1.5699999999999999E-002   1.0690999999999999
 pair_coeff           3           4 lj/charmm/coul/long   5.1700000000000003E-002   2.1595000000000000
 pair_coeff           4           4 lj/charmm/coul/long  0.17000000000000001        3.2500000000000000
 pair_coeff           3           5 lj/charmm/coul/long   4.1399999999999999E-002   2.2343999999999999
 pair_coeff           4           5 lj/charmm/coul/long  0.13639999999999999        3.3248000000000002
 pair_coeff           5           5 lj/charmm/coul/long  0.10940000000000000        3.3997000000000002
 pair_coeff           1           6 lj/charmm/coul/long   1.4000000000000000E-002   2.7099899999999999
 pair_coeff           2           6 lj/charmm/coul/long   5.7400000000000000E-002   3.1000000000000001
 pair_coeff           3           6 lj/charmm/coul/long   1.5699999999999999E-002   1.5145000000000000
 pair_coeff           4           6 lj/charmm/coul/long   5.1700000000000003E-002   2.6050000000000000
 pair_coeff           5           6 lj/charmm/coul/long   4.1399999999999999E-002   2.6798000000000002
 pair_coeff           6           6 lj/charmm/coul/long   1.5699999999999999E-002   1.9600000000000000
 pair_coeff           1           1 buck/coul/long   70359906.629702002       0.13125800000000001        0.0000000000000000
 pair_coeff           1           2 buck/coul/long   103496.13301000001       0.32173700000000000        0.0000000000000000
 pair_coeff           2           2 buck/coul/long   22793.338582000000       0.48221700000000001        696.94954199999995
 pair_coeff           1           4 buck/coul/long   32690390.937995002       0.15094700000000000        0.0000000000000000
 pair_coeff           2           4 buck/coul/long   112936.71421300001       0.34242600000000001        0.0000000000000000
 pair_coeff           1           5 buck/coul/long   32690390.937995002       0.15094700000000000        0.0000000000000000
 pair_coeff           2           5 buck/coul/long   112936.71421300001       0.34242600000000001        0.0000000000000000

group lead type 1
1372 atoms in group lead
group iodine type 2
4116 atoms in group iodine
group methylammonium molecule <> 5489 6860
10976 atoms in group methylammonium


timestep 1

############ ---------- Define Settings ------------------------------------------#####################
compute csym all centro/atom fcc
compute eng all pe/atom
compute stress all stress/atom NULL virial
compute eatoms all reduce sum c_eng
compute stress1 all reduce sum c_stress[1]
compute stress2 all reduce sum c_stress[2]
compute stress3 all reduce sum c_stress[3]
compute stress4 all reduce sum c_stress[4]
compute stress5 all reduce sum c_stress[5]
compute stress6 all reduce sum c_stress[6]

reset_timestep 0
timestep 1

##### Store cell length for strain calculations
variable tmpx equal "lx"
variable L0x equal ${tmpx}
variable L0x equal 62.3322301271326
print "Initial Length in x, L0x: ${L0x}"
Initial Length in x, L0x: 62.3322301271326

variable tmpy equal "ly"
variable L0y equal ${tmpy}
variable L0y equal 62.2288929287961
print "Initial Length in y, L0y: ${L0y}"
Initial Length in y, L0y: 62.2288929287961

variable tmpz equal "lz"
variable L0z equal ${tmpz}
variable L0z equal 87.9550080823369
print "Initial Length in z, L0z: ${L0z}"
Initial Length in z, L0z: 87.9550080823369

thermo 50

#######------Deformation------######
fix 3 all npt temp 300 300 100 x 1 1 1000 y 1 1 1000 drag 1
variable srate equal 1.0e10
variable srate1 equal "-v_srate / 1.0e15"
fix 4 all deform 1 z erate ${srate1} units box remap x
fix 4 all deform 1 z erate -1e-05 units box remap x

compute msdpb lead msd
compute msdi iodine msd
compute msdma methylammonium msd

compute myRDF all rdf 20 1 1 2 2 1 2 1 4 1 5 2 4 2 5 4 5
fix 2 all ave/time 1 1000 1000 c_myRDF[*] file stress.rdf mode vector

########-----output strain and stress info to file----#######
variable strainx equal "(lx - v_L0x)/v_L0x"
variable strainy equal "(ly - v_L0y)/v_L0y"
variable strainz equal "(lz - v_L0z)/v_L0z"
variable p1 equal "-pxx *1.01325/10000"
variable p2 equal "-pyy *1.01325/10000"
variable p3 equal "-pzz *1.01325/10000"
variable p4 equal "-pxy *1.01325/10000"
variable p5 equal "-pyz *1.01325/10000"
variable p6 equal "-pxz *1.01325/10000"
variable vonmises equal "sqrt(((v_p1-v_p2)^2+(v_p2-v_p3)^2+(v_p1-v_p3)^2+6*(v_p4^2+v_p5^2+v_p6^2))/2)"


dump 6 all custom 1000 deform.dump id element type mass xs ys zs c_csym c_eng q fx fy fz c_stress[1] c_stress[2] c_stress[3] c_stress[4] c_stress[5] c_stress[6]
dump_modify 6 element Pb I H N C H
thermo_style custom v_strainz v_strainx v_strainy step temp lx ly lz v_p1 v_p2 v_p3 v_p4 v_p5 v_p6 v_vonmises ke pe etotal evdwl ecoul elong epair ebond eangle edihed emol press vol c_msdpb[4] c_msdi[4] c_msdma[4]

run	30000
PPPM initialization ...
  using 12-bit tables for long-range coulomb (../kspace.cpp:328)
  G vector (1/distance) = 0.27077963
  grid = 40 40 60
  stencil order = 5
  estimated absolute RMS force accuracy = 0.037815386
  estimated relative force accuracy = 0.00011387991
  using double precision KISS FFT
  3d grid and FFT values/proc = 148003 96000
Neighbor list info ...
  update every 1 steps, delay 10 steps, check yes
  max neighbors/atom: 2000, page size: 100000
  master list distance cutoff = 12
  ghost atom cutoff = 12
  binsize = 6, bins = 11 11 15
  5 neighbor lists, perpetual/occasional/extra = 3 2 0
  (1) pair lj/charmm/coul/long, perpetual, skip from (5)
      attributes: half, newton on
      pair build: skip
      stencil: none
      bin: none
  (2) pair buck/coul/long, perpetual, skip from (5)
      attributes: half, newton on
      pair build: skip
      stencil: none
      bin: none
  (3) compute centro/atom, occasional
      attributes: full, newton on
      pair build: full/bin
      stencil: full/bin/3d
      bin: standard
  (4) compute rdf, occasional, copy from (5)
      attributes: half, newton on
      pair build: copy
      stencil: none
      bin: none
  (5) neighbor class addition, perpetual
      attributes: half, newton on
      pair build: half/bin/newton
      stencil: half/bin/3d/newton
      bin: standard
WARNING: Inconsistent image flags (../domain.cpp:812)
Per MPI rank memory allocation (min/avg/max) = 209.8 | 209.8 | 209.8 Mbytes
v_strainz v_strainx v_strainy Step Temp Lx Ly Lz v_p1 v_p2 v_p3 v_p4 v_p5 v_p6 v_vonmises KinEng PotEng TotEng E_vdwl E_coul E_long E_pair E_bond E_angle E_dihed E_mol Press Volume c_msdpb[4] c_msdi[4] c_msdma[4] 
-4.8470877e-16 -1.1399283e-16 4.5672851e-16        0    300.18499     62.33223    62.228893    87.955008 -0.017292815 -0.039250607 -0.017757825 -0.0035435147 -0.021960714  0.017474288  0.053597489    14731.001   -962944.29   -948213.29    106265.56   -338438.27   -738443.17   -970615.88    2933.6517    4177.6395    560.30762    7671.5989     244.4321    341165.66            0            0            0 
     -0.0005 6.0054099e-05 3.9079858e-05       50    299.43429    62.335973    62.231325    87.911031 -0.036936315 0.0056837483  -0.01319956 -0.0030071678 -0.0023544698 0.0013103654  0.037645083    14694.161    -962923.9   -948229.74    106424.72   -338435.92   -738436.27   -970447.47    2973.1057    3992.7864     557.6801    7523.5723    146.23612    341028.88 0.0093672921  0.015308518   0.25240468 
      -0.001 0.00034470333 0.00012251844      100    299.44296    62.353716    62.236517    87.867053 -0.015047607 -0.013810227 -0.008276666 -0.010163907 -0.010694944 -0.018589836  0.041578902    14694.587   -962937.13   -948242.54    106286.51   -338363.68   -738445.62   -970522.79    2900.8839    4129.3738    555.40334     7585.661    122.16301    340983.75  0.033503389  0.053741625   0.63093707 
     -0.0015 0.00069706528 0.00024232669      150    298.78928     62.37568    62.243973    87.823076  0.026452428 0.0072249706 -0.040465778 -0.0077442574  -0.03166562  0.018240722  0.088018755    14662.509   -962900.62   -948238.12    106267.03   -338322.22   -738431.99   -970487.19    2910.1731    4144.5111    531.88061    7586.5648    22.332031    340973.98  0.064340836  0.099788701   0.97488461 
      -0.002 0.00096809429 0.00035620575      200     302.2204    62.392574    62.251059    87.779098  0.029866711 -0.0076609726 -0.057086582 -0.016323561 -0.0026508502  0.014240997  0.084468464    14830.884   -963077.29   -948246.41    106306.08   -338433.52   -738437.96    -970565.4    2917.4249     4028.551    542.13031    7488.1062    114.74905    340934.35  0.094195385   0.14001058    1.1606262 
     -0.0025 0.0010394739 0.00044012085      250    300.95127    62.397023    62.256281    87.735121 -0.0022801018  0.014106795 -0.024683706 -0.0021639416  0.021038977 -0.020923522  0.061586706    14768.605   -963040.09   -948271.49     106290.4   -338390.27   -738444.76   -970544.63    2900.5531    4054.3746    549.61128     7504.539    42.296284    340816.43   0.11750642   0.16939676    1.3000418 
      -0.003 0.0009151856 0.00056926605      300    299.59567    62.389276    62.264318    87.691143 -0.0072586585 -0.025405854 -0.099589429 -0.013702512 -0.018437006 -0.0057436278  0.094131617    14702.081   -962996.39   -948294.31     106509.2   -338577.71   -738445.22   -970513.73    2845.8989    4127.8414    543.59727    7517.3375    435.08164    340647.27   0.13295069   0.19045845    1.3939934 
     -0.0035 0.00078286835 0.00087604344      350    298.50703    62.381028    62.283408    87.647166 0.0073166933 -0.026443781 -0.074275964  0.023354429  0.015008772 -0.0099245322  0.087464801    14648.658   -962947.33   -948298.67    106781.95   -338874.53   -738445.29   -970537.87     2876.144    4149.5399    564.85046    7590.5344    307.27215     340535.8   0.14227522    0.2074348    1.4729681 
      -0.004 0.00087417446 0.0014204103      400    302.87033    62.386719    62.317283    87.603188 -0.032927384 -0.011378908 -0.070227972 -0.007042426  0.024822352 0.0057220467  0.068955796    14862.779   -963168.87    -948306.1    106681.28   -338812.56   -738454.08   -970585.36    2833.3481    4037.3054    545.82947     7416.483    376.78843    340581.12   0.14788776   0.22371732    1.5393568 
     -0.0045 0.0011415651  0.002026772      450    299.62897    62.403386    62.355017    87.559211 0.0056229385  0.025440483  -0.10361164 -0.0052622688 -0.0044561365 0.00041672838   0.12096634    14703.715   -963024.75   -948321.04    106506.81   -338714.14   -738442.25   -970649.57    2923.0135    4173.3278    528.48163    7624.8229    238.66508    340707.27   0.15263958    0.2415852     1.617387 
      -0.005 0.0012800005 0.0025886654      500    299.76932    62.412015    62.389983    87.515233  0.028546649 0.0055563003 -0.078752552 0.0091712869 -0.0011552707  0.019737769   0.10488045    14710.603   -963054.73   -948344.13    106402.19   -338478.22    -738430.5   -970506.53    2911.5099    4008.2233    532.06323    7451.7964    146.88577    340774.21   0.15831129   0.25988763    1.7254924 
     -0.0055  0.001194838 0.0029415736      550     299.9611    62.406707    62.411944    87.471256 -0.013543874  0.041643464  -0.10289742  0.024393751  0.011129323 -0.0071751693   0.13517427    14720.014   -963056.52   -948336.51    106487.31   -338589.92   -738435.18   -970537.79    2929.3457    4012.9156      539.009    7481.2703    246.06572    340693.88   0.16488119   0.27594264    1.8577494 
      -0.006 0.0011816109 0.0028845936      600    298.04338    62.405883    62.408398    87.427278 -0.021533032  0.049207975  -0.11781998 -0.032208343 -0.0035495072  0.018145617   0.15882261    14625.905   -962937.21   -948311.31    106647.64   -338634.59   -738432.74   -970419.69    2894.9713    4041.8512    545.64924    7482.4717     296.5541    340498.75   0.17276466   0.28912494    1.9745488 
     -0.0065 0.0013494811 0.0024426518      650    299.83463    62.416346    62.380896    87.383301 -0.023595258 0.0089558114  -0.11930028  0.010932199 0.0020065622   0.01085261   0.11856761    14713.808   -962992.48   -948278.67    106674.25   -338787.96   -738435.98   -970549.69    2869.8354    4156.7422     530.6348    7557.2123    440.62744    340234.54   0.18122742   0.29917232    2.0630363 
      -0.007 0.0016261493 0.0018945093      700    302.05254    62.433592    62.346786    87.339323 0.0071464271 -0.028559235  -0.10370901  0.011721431 0.0023967232  0.012126368   0.10235336    14822.647   -963092.18   -948269.53    106998.54   -339120.32   -738459.15   -970580.92    2872.5666    4070.2633    545.91521    7488.7452    411.61877    339971.27   0.18962278   0.30782958    2.1517442 
     -0.0075 0.0019853256 0.0016942005      750    299.85348     62.45598    62.334321    87.295346 -0.024064194 -0.057458116  -0.18494244 -0.037115832  0.019967879 -0.014897304   0.16619055    14714.733    -963002.7   -948287.96     107309.7   -339378.58   -738430.77   -970499.65    2864.2494    4118.5203    514.18324     7496.953    876.60086    339853.97    0.1974281   0.31608739     2.228091 
      -0.008 0.0024158742 0.0020517789      800     300.1523    62.482817    62.356573    87.251368  0.011094122 -0.025488501  -0.14659733  0.016395677 -0.00039011982 -0.011284213   0.14705451    14729.397   -963024.58   -948295.18     107119.5    -339176.8    -738439.3    -970496.6    2874.1823    4074.2394    523.60599    7472.0276    529.62155    339950.03   0.20384072   0.32253315    2.2862096 
     -0.0085 0.0028381091 0.0027572758      850    298.71212    62.509136    62.400475    87.207391 -0.00048673192 -0.036951713   -0.1371607  0.019019505 -0.0079122621  0.020835193   0.13266878    14658.722   -962936.18   -948277.46    106738.14   -338860.71   -738428.47   -970551.04    2933.2091    4137.2982    544.35774     7614.865    574.38652    340161.13   0.20925868   0.32789515    2.3455974 
      -0.009 0.0031324657 0.0034896248      900    301.03382    62.527484    62.446048    87.163413  0.018089988  0.055564473  -0.11436658 -0.035171855 0.0086445011 -0.0055908617   0.16715847    14772.655   -963061.29   -948288.64    106750.54   -338801.23    -738446.1   -970496.79    2895.3658    4020.8631    519.26736    7435.4963    133.93244    340337.76   0.21460175   0.33315868    2.4071855 
     -0.0095 0.0033786362 0.0039796104      950    299.02686    62.542828     62.47654    87.119436 -0.027664736 -0.022970009  -0.19756453  0.020784202 -0.0064256202  -0.01179487   0.17754657    14674.168   -962953.96   -948279.79    106837.97   -338885.92   -738427.53   -970475.48     2911.967    4064.3968    545.16004    7521.5239    816.51213    340415.66   0.22049052   0.33699599    2.4701043 
       -0.01 0.0036239755 0.0042132003     1000    300.26005    62.558121    62.491076    87.075458   0.03023798  0.047219537   -0.1224349 0.0080025471 -0.021414999 0.00085449191    0.1666137    14734.684   -962988.83   -948254.14     106813.5   -338958.01   -738433.91   -970578.42    2920.9243    4113.9789    554.69342    7589.5966    147.96408     340406.2   0.22691678   0.33914438    2.5384527 
     -0.0105 0.0037631155 0.0041941787     1050    301.65827    62.566794    62.489892     87.03148 -0.015686269  0.013587408  -0.18208743  0.020189056 0.0089845137  0.027839664   0.19289264    14803.299   -963061.42   -948258.12    106971.64    -339081.6   -738444.34   -970554.29    2868.1719    4072.1493    552.55326    7492.8744     605.9258       340275   0.23307653   0.34128203    2.6104009 
      -0.011 0.0038931214  0.004068195     1100    299.38746    62.574897    62.482052    86.987503 0.0045307608 -8.6927778e-05  -0.19027219 -0.032563917 -0.0072596833 0.0047473839   0.20118877    14691.863   -962967.55   -948275.69    107164.09   -339287.79    -738445.8   -970569.49    2919.3253    4113.8261    568.79148    7601.9428    611.32775    340104.43   0.23945096   0.34455697    2.6694391 
     -0.0115 0.0040189507  0.004068846     1150    302.61887     62.58274    62.482093    86.943525 0.00030622376 -0.029413415  -0.20143041  0.026376051 -0.014969055 -0.018071705   0.19830394    14850.439   -963144.85   -948294.41    107132.68   -339257.58   -738459.71   -970584.61    2872.8138    4022.8432    544.11103    7439.7681    758.40976    339975.32   0.24688841   0.34951015    2.7084371 
      -0.012 0.0040697501 0.0041505712     1200    298.51401    62.585907    62.487178    86.899548 -0.0042190496  0.013441882   -0.1638052 -0.036901678 -0.006232453 -0.0080762623   0.18164663        14649   -962973.44   -948324.44    107227.26   -339351.55   -738461.57   -970585.87    2905.7497    4136.6302       570.05    7612.4299    508.53646    339848.21   0.25517554   0.35716437    2.7675663 
     -0.0125 0.0041521818 0.0042768107     1250    297.88588    62.591045    62.495034     86.85557 -0.017275163  0.011130974  -0.22442757 -0.0089437172 0.0057097517 0.0076484836    0.2238676    14618.176   -962949.67   -948331.49    107256.66   -339308.62   -738452.74   -970504.71    2873.2348    4120.6466    561.15826    7555.0397    758.52212    339746.81   0.26424436   0.36698382    2.8237405 
      -0.013 0.0043874079 0.0043959703     1300    299.99553    62.605707    62.502449    86.811593 -0.014117032 0.0043280631  -0.23962934  0.030292791 -0.023971532 -0.013811665   0.24577381    14721.703   -963036.85   -948315.15    107487.49   -339558.22   -738447.49   -970518.22    2912.7669    4001.0311    567.56879    7481.3668    820.52244    339694.63   0.27329575   0.37780702     2.878023 
     -0.0135 0.0048705035 0.0045569146     1350    298.53736    62.635819    62.512465    86.767615 -0.031122165 -0.022492566  -0.21713804 -0.012411825 -0.004024196 -0.0047765744   0.19199168    14650.146   -962949.54    -948299.4    107684.69   -339777.43    -738456.7   -970549.43    2894.5949    4117.9518    587.34155    7599.8883    890.70735    339740.29   0.28293941   0.38940837    2.9263893 
      -0.014 0.0054136057  0.004950002     1400    302.76048    62.669672    62.536926    86.723638 0.0066705717 -0.004525759  -0.21430348 -0.025623291 -0.0041655831   0.01830545   0.22250342    14857.388   -963142.91   -948285.52    107310.74   -339506.54   -738459.42   -970655.23    2894.9393    4061.6412    555.74193    7512.3224    697.94773    339884.56   0.29444163   0.40146891     2.970947 
     -0.0145 0.0057496062 0.0054547132     1450    300.04152    62.690616    62.568334     86.67966  0.044482323 0.0045675157    -0.246685 0.0078216303 -0.027108036 -0.0026958521   0.27777614     14723.96   -963027.52   -948303.56    107301.54   -339451.47    -738461.9   -970611.83    2954.7107    4053.0004    576.60207    7584.3131    650.16912    339996.41   0.30745238   0.41414432    3.0035971 
      -0.015  0.005877772 0.0059841748     1500    297.91915    62.698605    62.601282    86.635683 -0.0009831203 -0.053964774  -0.22928458  0.011656416 -0.0010274333  0.027421762   0.21330604    14619.809   -962939.01    -948319.2    107418.76   -339443.95   -738442.85   -970468.04    2881.1372    4094.1034    553.78482    7529.0253    935.05214    340046.18   0.32117889   0.42691063     3.045532 
     -0.0155 0.0058561563 0.0064564281     1550    301.64822    62.697257    62.630669    86.591705  0.016034722  0.029509348  -0.24882478 0.0034723985 -0.00042685365  0.021481579   0.27444872    14802.806   -963107.53   -948304.72    107242.05   -339360.73   -738457.55   -970576.23    2890.2469    4032.2284    546.22531    7468.7006    668.74154    340025.81   0.33412077   0.43940662    3.1184554 
      -0.016 0.0056538754 0.0067197582     1600    295.19305    62.684649    62.647056    86.547728  0.023187618 0.0037807394   -0.2610322  0.010605238  -0.02460621 -0.018733363   0.28079946    14486.031   -962775.87   -948289.84    107570.79   -339527.71   -738450.63   -970407.55    2886.2167    4181.4357    564.03276    7631.6852    770.01017    339873.68   0.34570713    0.4520135    3.1927094 
     -0.0165 0.0055379314  0.006824239     1650    299.86897    62.677422    62.653558     86.50375 -0.038004124 -0.0060993184  -0.24968216 0.0077703447 0.0044034447 0.00099207426   0.22982887    14715.493    -962970.7   -948255.21     107844.5   -339872.71   -738454.75   -970482.96    2894.9421    4065.4411    551.87828    7512.2615    966.47948    339697.07   0.35765408   0.46464943     3.240642 
      -0.017 0.0055752839 0.0069443232     1700     299.6854     62.67975     62.66103    86.459773 -0.010894813 -0.0072008731  -0.33121396  0.027535282 -0.020775921 -0.028585598   0.33139424    14706.485    -962927.3   -948220.81    107860.48   -339907.75   -738467.22   -970514.48    2951.4728    4071.5699    564.14024    7587.1829    1149.1394    339577.48   0.37111983    0.4771302    3.2853059 
     -0.0175  0.005775211 0.0070686102     1750     301.3364    62.692212    62.668765    86.415795  0.045083446  0.035905792  -0.30331522 0.0050109521 -0.0059545758 0.0075614605   0.34441487    14787.504   -962997.57   -948210.06    107832.59    -339875.7   -738467.77   -970510.88    2914.1404    4025.5029    573.67297    7513.3163    731.39561    339514.13   0.38563106   0.49030782    3.3122738 
      -0.018 0.0059873481 0.0070534552     1800    301.24405    62.705435    62.667822    86.371818 -0.054224057 -0.017943763  -0.28950485 -0.0096235069 -0.0052421211 -0.016398753   0.25763617    14782.972   -962996.22   -948213.25    107813.53   -339895.77   -738471.69   -970553.93    2848.9356    4130.7475    578.03071    7557.7138    1189.8106    339407.82    0.3990405   0.50397187     3.322092 
     -0.0185  0.006181063 0.0069096926     1850    299.62644     62.71751    62.658875     86.32784  0.015800119  0.032483904  -0.32565232 -0.0010358573 -0.023126145 0.0011737381   0.35238706    14703.591   -962932.79    -948229.2    108080.18   -340109.78   -738470.84   -970500.44    2946.3433    4047.1787    574.12401     7567.646    912.47074    339251.89   0.41144055   0.51864098    3.3325287 
      -0.019 0.0065107945 0.0067405797     1900    299.22969    62.738062    62.648352    86.283863 -0.032867149 0.0050271461   -0.3894437 0.0009793125  0.023090043 -0.005723994   0.37920397    14684.122   -962932.91   -948248.79    108261.03   -340226.38   -738457.41   -970422.76    2878.9266     4057.163    553.76076    7489.8503    1372.7567    339133.22   0.42356697   0.53414113    3.3770015 
     -0.0195 0.0070446746 0.0066673023     1950     300.9179     62.77134    62.643792    86.239885 0.0012694764 -0.0027683247  -0.30409008  0.017244538 -0.019313283  -0.03061946   0.31120984    14766.967   -963013.14   -948246.17    108164.34   -340190.29   -738467.77   -970493.72    2887.3845    4058.4686    534.72462    7480.5777    1005.3094    339115.48   0.43545766   0.55076765    3.4331536 
       -0.02 0.0076715067 0.0066849365     2000    301.49372    62.810412    62.644889    86.195908 -0.022311107 -0.036869601  -0.37208658 -0.0039187395 -0.031826998 -0.021034269   0.34910584    14795.224   -963048.47   -948253.24    108005.45   -340096.61   -738469.08   -970560.25    2842.8426    4128.0374    540.90133    7511.7814    1418.7591    339159.46   0.44787715   0.56866696    3.4855291 
     -0.0205 0.0082700792 0.0068238529     2050    299.58732    62.847723    62.653534     86.15193  0.033049741  0.021602955  -0.28298048 0.0086962408   0.01055713 0.0042936261   0.31145647    14701.671   -962976.87    -948275.2    108077.62   -340128.36   -738469.57   -970520.31    2874.1554    4101.9808    567.29917    7543.4354    751.13999    339234.59   0.46367349   0.58647383    3.5405413 
      -0.021 0.0086431423 0.0072746706     2100     300.3286    62.870976    62.681588    86.107953  0.032982507 -0.066829214  -0.38741529 -0.015961105 -0.015507971  -0.01827531   0.38369751    14738.048   -963019.71   -948281.66    108261.47   -340243.54   -738476.11   -970458.18     2790.264     4089.358    558.85535    7438.4774    1385.8442    339338.75   0.48440632   0.60230277    3.5901614 
     -0.0215 0.0087256542 0.0080332081     2150    299.15308     62.87612    62.728791    86.063975 -0.00016242099  0.021942853  -0.36270144 -0.0085791537 0.0058171914 -0.010956812   0.37499292    14680.362   -962946.34   -948265.98    108208.57   -340231.69   -738464.59   -970487.71    2896.1516    4068.3263    576.89243    7541.3703    1121.5429    339448.62   0.50682653   0.61747519    3.6270224 
      -0.022 0.0086086474 0.0086843335     2200    300.00949    62.868826    62.769309    86.019998  0.010867763   0.04063601  -0.37960813 -0.014629545   -0.0147418 0.0048020427   0.40785361    14722.389   -962955.69    -948233.3    108205.24   -340209.33   -738445.31   -970449.39     2866.171    4059.8009    567.73356    7493.7054    1079.3794    339454.94   0.52485889   0.63312474    3.6601392 
     -0.0225 0.0084010551 0.0090461114     2250    299.47562    62.855887    62.791822     85.97602 0.0094973535 0.0082416266  -0.35938999 -0.0071037707 0.0070783252 -0.011664814   0.36922369     14696.19      -962890   -948193.81    108303.52   -340322.04   -738458.97   -970477.49    2876.1128    4145.0462    566.33155    7587.4905    1123.9444    339333.22   0.53722857   0.64793481    3.6829263 
      -0.023 0.0082580812 0.0091531047     2300    299.55478    62.846975    62.798481    85.932043 0.00038330606 -0.0065938204  -0.41842809  0.012038246 -0.039475394 0.0054282396   0.42157756    14700.075   -962875.66   -948175.59    108585.81   -340575.91   -738465.31   -970455.41    2907.4758      4090.45    581.82607    7579.7519    1396.9524    339147.52   0.54741746   0.66151735    3.7106423 
     -0.0235 0.0082664976 0.0093159748     2350    299.36011    62.847499    62.808616    85.888065 -0.036417555  0.017941343  -0.43170135 -0.023851236 0.00046783209 -0.012827671    0.4276591    14690.521   -962858.67   -948168.15    108707.52   -340663.57   -738459.39   -970415.44     2874.556    4108.4564    573.75702    7556.7694     1480.969    339031.49   0.56097752   0.67704526    3.7503615 
      -0.024 0.0084368736 0.0094978283     2400    300.18382    62.858119    62.819932    85.844088 -0.019223049 0.00085556245  -0.41164311 -0.023186347 -0.0037697046 -0.0086370539   0.40516065    14730.943    -962903.1   -948172.16    108525.26   -340522.82   -738450.86   -970448.43     2891.616    4102.6862    551.01961    7545.3219    1414.6249    338976.22    0.5792036   0.69396186    3.8040313 
     -0.0245 0.0087861719 0.0095037054     2450    299.92601    62.879892    62.820298     85.80011 -0.0056111063 -0.0033925426  -0.43297357 0.0094112081 -0.0023858122 -0.0057071867   0.42891985    14718.292    -962899.2   -948180.91    108587.56   -340569.93   -738470.42   -970452.79     2850.928    4146.8989    555.76474    7553.5916     1453.992    338921.89   0.60020127   0.71062851    3.8393692 
      -0.025 0.0093037671 0.0094392879     2500    301.56922    62.912155    62.816289    85.756133 0.0091536755  0.018175943  -0.41569634 -0.014999812  0.012532319 0.0050825909   0.43085462    14798.929   -962993.27   -948194.34    108619.84   -340591.94   -738478.82   -970450.92    2794.8446     4089.076    573.73265    7457.6533    1277.6272    338900.36   0.62196601   0.72815989     3.874469 
     -0.0255 0.0097659111  0.009391856     2550    301.32366    62.940961    62.813338    85.712155 -0.0054404317 -0.034045169  -0.43827102 -0.0015433308 0.0089415216  0.023818306   0.42157855    14786.879   -962997.79   -948210.91    108601.89   -340631.74   -738481.89   -970511.74    2795.9563     4138.327    579.67406    7513.9573    1571.6971    338865.74   0.64149505   0.74726729    3.9110585 
      -0.026  0.010054787 0.0093611801     2600    303.01411    62.958967    62.811429    85.668178 0.0072982519 -0.0014300942  -0.45364889 0.0075744586 -0.0078163236 -0.022084442   0.45863244    14869.835   -963090.98   -948221.14    108818.51   -340815.56   -738476.48   -970473.53    2828.6088    3993.8018    560.14494    7382.5556    1473.0841    338778.47   0.65785543   0.76839017    3.9302716 
     -0.0265  0.010290235 0.0094663952     2650    298.64662    62.973643    62.817976      85.6242 0.0027094656 -0.0088725284  -0.46949971 -0.0066897437 -0.019832159 0.0046187314   0.46800077    14655.508   -962878.89   -948223.38    108956.02   -340935.92   -738453.18   -970433.08     2844.384    4137.7917    572.01767    7554.1933    1564.8089    338718.79   0.67605674   0.79089656    3.9589852 
      -0.027    0.0105018 0.0098000156     2700    300.83782    62.986831    62.838737    85.580223   0.01320497 -0.00063505125  -0.46804527  0.018775101 -0.0059899687 0.0078544144   0.47590236    14763.037   -962978.41   -948215.38     108812.8   -340805.41   -738457.48   -970450.09    2828.9918     4072.728    569.95807    7471.6778    1498.3974    338727.63   0.69988748   0.81118503    3.9859673 
     -0.0275  0.010555389  0.010189572     2750    302.16494    62.990171    62.862979    85.536245  0.031801685 -0.009110379  -0.50204946  0.038154581 -1.4694237e-05 -0.019686854   0.51996147    14828.163   -963044.41   -948216.25    108827.84   -340866.72   -738484.87   -970523.75    2861.1731    4047.1884    570.98239    7479.3439    1576.9657    338702.13   0.72368896   0.82979411    4.0251171 
      -0.028  0.010430142  0.010565591     2800    300.22575    62.982364    62.886378    85.492268 -0.028459305  0.019998745  -0.46881374 -0.046490855 0.0080257329 0.0089860557   0.47383395    14733.001   -962969.85   -948236.85    109006.07   -340981.09   -738461.42   -970436.44    2819.3276    4087.9754    559.29173    7466.5948    1570.1104    338612.03   0.74343765   0.84987008    4.0537453 
     -0.0285  0.010379197  0.010849423     2850    296.36044    62.979189    62.904041     85.44829 -0.017296545 -0.004432594  -0.52976047  0.012285282 0.0060823203 -0.011725691    0.5199551    14543.318   -962773.69   -948230.37    109283.62   -341134.19   -738456.43      -970307    2782.8386    4177.9733    572.49687    7533.3088    1814.2597    338515.83   0.76171404   0.87017086    4.0911138 
      -0.029  0.010647572  0.011081998     2900    302.34145    62.995917    62.918513    85.404313 -0.036073238 -0.0027900745  -0.51376276 0.0050318012    0.0236397 -0.012606625   0.49741664    14836.825   -963044.19   -948207.36    109260.12   -341274.36   -738466.31   -970480.55    2836.2038    4039.3324    560.82524    7436.3615    1817.9984    338509.34   0.78171551   0.89113428    4.1413123 
     -0.0295  0.011198325   0.01133121     2950    301.10637    63.030247    62.934022    85.360335 -0.023668666 -0.012844955  -0.53736419  0.011049763 -0.027725682 -0.014730354   0.52238273    14776.216    -962984.3   -948208.08    109208.05   -341210.36   -738457.98    -970460.3    2842.0181     4064.346    569.63382     7475.998    1887.9112    338602.85   0.80242372   0.91691126    4.1948398 
       -0.03  0.011860964  0.011491581     3000    299.58465     63.07155    62.944001    85.316358 0.0043666461  0.025901764   -0.5066961 -0.018120874 -0.0098516023  0.023088548    0.5249097     14701.54   -962911.28   -948209.74    109142.13   -341041.39   -738460.92   -970360.17    2836.9325    4036.3121    575.65325    7448.8979    1567.3252    338703.87   0.82284814   0.94525512    4.2191524 
     -0.0305  0.012385432  0.011479466     3050    298.56105    63.104242    62.943247     85.27238 0.0061167907   0.02820279  -0.57103854 -0.020970091 -0.010515416 -0.012817037   0.59032779    14651.309   -962834.07   -948182.77    109049.78   -340917.47   -738465.46   -970333.15    2850.1158     4077.853    571.10318     7499.072    1765.6681    338700.69    0.8434966    0.9693274    4.2631537 
      -0.031  0.012666073   0.01129226     3100    301.31258    63.121735    62.931598    85.228403  0.043627349 -0.0048671479  -0.53521883 -0.011930757 -0.030687783  0.001310246   0.55910746    14786.335    -962937.4   -948151.07    109225.32   -341123.28   -738466.95   -970364.91    2857.5618    3991.5182    578.42891    7427.5088    1633.2219    338557.18   0.86224175    0.9879923    4.2956228 
     -0.0315  0.012818245  0.011076755     3150    300.22866     63.13122    62.918187    85.184425 -0.030882431  -0.02225882   -0.6276452 0.0014635755  0.019290864 -0.014578238   0.60258347    14733.144   -962873.95   -948140.81     109588.3   -341462.17   -738458.54   -970332.41    2820.3281    4066.3231     571.8069     7458.458    2239.6133    338361.22    0.8785574    1.0059901    4.3097666 
      -0.032  0.013092323  0.011029289     3200    300.51877    63.148304    62.915233    85.140448  0.015527945 -0.033492528   -0.5583179 -0.017596561 0.0086662355 0.0010186126   0.55202283     14747.38   -962875.05   -948127.67    109636.05   -341558.81   -738478.12   -970400.89    2873.4544     4125.277    527.10517    7525.8366     1895.822    338262.17   0.89659787    1.0267683    4.3310535 
     -0.0325  0.013478212  0.011274962     3250    298.32233    63.172357    62.930521     85.09647 0.0058938197 0.0052861542  -0.61966557   0.01368442  0.011275458 6.5971809e-06   0.62600957    14639.594   -962771.01   -948131.41    109657.45   -341520.62   -738469.25   -970332.42    2838.9103    4166.9294    555.56805    7561.4078     2001.762    338298.41     0.918985    1.0500454    4.3803362 
      -0.033  0.013858516  0.011712938     3300    297.95011    63.196062    62.957776    85.052493 -0.0018070979  0.032183699  -0.56843092 -0.020222858 -0.015696104 -0.0047771279   0.58609929    14621.328   -962736.01   -948114.68    109620.09   -341416.45   -738453.87   -970250.23    2890.2738    4079.4761    544.47306    7514.2229    1770.0611    338396.95   0.94250396    1.0747109    4.4178431 
     -0.0335  0.014178229  0.012126893     3350    302.70185    63.215991    62.983536    85.008515 -0.012399501 -0.044007152  -0.60937107 -0.010265758 -0.016862975 0.0019354228   0.58282562    14854.511   -962955.12   -948100.61     109406.5   -341290.23   -738468.59   -970352.31    2852.6353     4013.664    530.89158    7397.1909    2190.2384    338467.07   0.96436547    1.0989812     4.439285 
      -0.034  0.014342972  0.012385835     3400     300.7029     63.22626     62.99965    84.964538  0.050799319  0.046134512  -0.58282636 0.0097496829 -0.028437756  0.002622343   0.63346621    14756.416   -962861.36   -948104.95    109497.07   -341415.37   -738459.71   -970378.01     2891.592    4087.9767    537.08383    7516.6524    1598.4621    338433.48   0.98683095    1.1194585    4.4741161 
     -0.0345  0.014301382   0.01235898     3450    301.27576    63.223667    62.997979     84.92056  -0.02656561  0.017989779  -0.65677067 -0.015183399  0.012105999   0.02065274   0.65546435    14784.528   -962907.72   -948123.19    109869.39   -341719.55   -738479.66   -970329.81    2868.2363    3987.9431    565.91773    7422.0971    2188.8198    338235.47    1.0083476    1.1357541       4.5094 
      -0.035  0.014234028  0.012319444     3500    301.62526    63.219469    62.995518    84.876583  0.027136684 -0.052578282  -0.67704477 -0.013450596 -0.015847897 -0.026220761   0.67041107    14801.679   -962940.07   -948138.39    110109.29   -341982.01   -738476.67   -970349.39    2839.2262    4036.3747     533.7217    7409.3226    2311.0005    338024.66    1.0286819    1.1545619     4.555769 
     -0.0355  0.014321301  0.012532488     3550    298.91334    63.224909    63.008776    84.832605 -0.025166482 -0.0040030532  -0.63511864 0.0034286003  0.011955223 -0.013118261   0.62159353    14668.597   -962811.78   -948143.18     110228.8   -342001.59   -738454.53   -970227.32    2861.8546    4008.6713    545.01739    7415.5433    2185.3382    337949.69    1.0519412    1.1798035    4.5793043 
      -0.036  0.014602851  0.012993958     3600    299.29409    63.242458    63.037493    84.788628 -0.039532485 -0.034483943   -0.6461107  -0.01600064 0.0080194501  0.017865789   0.61069101    14687.281   -962808.92   -948121.64    110088.21   -341920.83   -738465.94   -970298.55     2833.562    4101.6891    554.38282    7489.6339    2369.0341    338022.24    1.0826734    1.2086656    4.5913558 
     -0.0365  0.015040836  0.013559004     3650    299.38676    63.269759    63.072655     84.74465 -0.0064965342 0.0068419625  -0.66055397 -0.013245969  0.025578712  0.014203009   0.66316479    14691.829   -962784.65   -948092.82    109946.04   -341727.84   -738464.56   -970246.36    2809.7574    4098.4959    553.46257    7461.7159    2171.9172    338181.29    1.1217674    1.2381074     4.633609 
      -0.037  0.015433698  0.014061693     3700    299.06274    63.294247    63.103937    84.700673  0.062529039  0.022372712  -0.64588572   0.00982279  0.013485494 -0.014313031   0.69026538    14675.928    -962736.8   -948060.87    109756.95   -341533.39   -738469.87   -970246.32    2877.6956    4057.5972     574.2246    7509.5174    1845.4938    338304.32    1.1605955     1.268426    4.6740696 
     -0.0375  0.015565245  0.014203779     3750    299.48013    63.302447    63.112778    84.656695 -0.013222467   0.05360953  -0.69560747 0.0067810083  0.012010482  0.031979336   0.72066615    14696.411   -962740.18   -948043.77     109859.3   -341610.64   -738470.54   -970221.87    2824.2428    4082.0916    575.35846    7481.6928    2155.5076    338219.86    1.1894732    1.2981745    4.7046969 
      -0.038  0.015546361  0.014006699     3800    299.40737    63.301269    63.100514    84.612718 -0.017230537 -0.034002793  -0.70877138 -0.014469533 -0.00023428196 -0.0018342901   0.68377606    14692.841   -962711.31   -948018.47    110278.95   -341958.68   -738466.97   -970146.69    2848.9858     4030.925    555.46522    7435.3761    2500.2211    337972.19    1.2128323     1.324556    4.7435956 
     -0.0385  0.015603672  0.013770078     3850    299.76045    63.304842     63.08579     84.56874 0.0073315469  0.010837154  -0.71946975 0.0033432184  0.010127385 -0.0056214381    0.7288596    14710.167   -962689.26   -947979.09    110714.39   -342410.72   -738467.15   -970163.48    2860.6131    4068.5416      545.073    7474.2277    2307.1011    337736.76    1.2370344      1.34932    4.8037719 
      -0.039  0.015942682  0.013681812     3900    302.23954    63.325973    63.080297    84.524763  -0.04196339 -0.023396272   -0.7410769  0.021065514 -0.0012706768 0.0021830994    0.7095318    14831.824   -962782.52   -947950.69    110759.54   -342506.97    -738473.1   -970220.53    2809.2696    4073.6366     555.1103    7438.0165      2652.97    337644.41    1.2655341    1.3781538    4.8514075 
     -0.0395  0.016503122  0.013876749     3950    301.52422    63.360907    63.092428    84.480785 -0.0048520236 -0.051298166  -0.73710119 -0.0083842354 -0.008135432   0.01718467   0.71107757    14796.721   -962742.41   -947945.69     110677.7   -342443.37   -738474.36   -970240.03    2855.7066    4097.0025    544.91729    7497.6264    2609.5941    337719.83    1.3021989    1.4125238    4.8757611 
       -0.04  0.017077964  0.014453527     4000    300.49999    63.396738     63.12832    84.436808  0.040793801 -0.040933042  -0.72545276 0.0089364908 0.00081073247 0.0091726349   0.72916674    14746.459   -962722.17   -947975.71    110708.26   -342400.81   -738465.47   -970158.02    2833.2932    4049.2065    553.35529    7435.8551    2387.0121    337927.04    1.3473854    1.4493597    4.9093134 
     -0.0405    0.0174782   0.01528583     4050    299.03814    63.421685    63.180113     84.39283  0.010822605 -0.0029103517   -0.7781543 -0.035584252 -0.019865857 -0.018978015   0.78606701    14674.721   -962659.27   -947984.55    110514.99    -342216.4   -738466.09    -970167.5    2825.3022    4139.8645     543.0569    7508.2235    2533.8993    338161.16    1.3906348    1.4881554    4.9596164 
      -0.041  0.017537845  0.016109775     4100    300.33233    63.425403    63.231386    84.348853 -0.0024390883  0.015611257  -0.76217748  0.006715143  0.033224246 -0.017696185   0.77176944    14738.231   -962714.63   -947976.39    110350.41   -342057.19   -738460.49   -970167.26     2858.765    4024.5684    569.30304    7452.6364    2464.0359    338279.06    1.4231899    1.5298928    4.9991355 
     -0.0415  0.017329401  0.016598853     4150    299.28659     63.41241    63.261821    84.304875  0.047468339  0.038843904  -0.72463183  0.010271303 0.00067529372 -0.020717757   0.76886908    14686.914   -962653.48   -947966.56    110591.62   -342258.39   -738453.81   -970120.59    2897.2319    4032.1393    537.73975     7467.111    2099.9082    338196.14    1.4507023    1.5670962    5.0338326 
      -0.042  0.016941274   0.01682617     4200    298.61572    63.388218    63.275967    84.260898 -0.0051267509 -0.012298844  -0.83830379 -0.0011856065 0.0026429153 -0.012709956   0.82992143    14653.992   -962600.99   -947946.99    110936.69   -342558.73   -738460.34   -970082.37    2900.4277    4018.0664    562.89473    7481.3889    2815.1308    337966.31    1.4815145    1.5947667    5.0623092 
     -0.0425   0.01662223  0.017021881     4250    299.33203    63.368331    63.288146     84.21692 -0.0089538549 -0.026994293  -0.81880837  0.025204008 -0.00024032972 -0.0035731755    0.8021994    14689.144   -962605.68   -947916.53    111121.51   -342723.38   -738482.55   -970084.42    2865.3328    4033.8843    579.52409    7478.7412    2811.9303    337748.94    1.5149693    1.6219447    5.1039889 
      -0.043  0.016677181  0.017193995     4300    301.01795    63.371756    63.298856    84.172943  -0.06191518  0.022503958  -0.77523968 0.00074130481 0.0024372439  0.027848565   0.76060684    14771.877   -962653.32   -947881.45    111254.36   -342870.64   -738453.75   -970070.02    2833.9724    4059.9943    522.73099    7416.6977    2679.9931    337647.95    1.5471698     1.656345    5.1306051 
     -0.0435  0.017300917  0.017105738     4350    302.20102    63.410635    63.293364    84.128965 -0.020698412  0.023158082  -0.87214933 0.0031554142 -0.0052505604 -0.024129409   0.87526737    14829.934   -962689.61   -947859.68    111203.47   -342788.61   -738464.09   -970049.24      2800.54    3998.1688    560.92097    7359.6297    2861.0565    337649.28    1.5814761    1.6935966    5.1789298 
      -0.044  0.018242408  0.016770685     4400    299.63358     63.46932    63.272514    84.084988 -0.022367496 -0.015933774  -0.81358902  0.022772969 -0.018929804  0.013500505   0.79645528    14703.941   -962549.98   -947846.03    111033.16   -342573.34   -738475.89   -970016.07    2840.1563     4087.958    537.97689    7466.0912    2802.5011    337673.83    1.6192581    1.7291605    5.2384731 
     -0.0445  0.019012729  0.016492511     4450    299.63922    63.517336    63.255204     84.04101  0.049339851 0.0058266008  -0.80808873 -0.016997759  0.011189082 0.00097672463   0.83726513    14704.218    -962543.3   -947839.08     111112.3   -342625.85   -738458.93   -969972.47    2854.2945    4049.7153    525.16174    7429.1715    2476.9217    337660.14    1.6550495    1.7646211    5.3076487 
      -0.045  0.019344878  0.016554864     4500    299.94775     63.53804    63.259084    83.997033 0.0048425729 -0.033428247  -0.85236675 -0.011990252 -0.0096043142 -0.0024728067   0.83916193    14719.358   -962551.58   -947832.23    111261.62   -342833.93    -738460.4   -970032.71    2819.6296    4101.8347    559.66185    7481.1262    2898.1081    337614.16    1.6865637    1.8024386     5.332944 
     -0.0455   0.01938284  0.017007153     4550     298.9738    63.540406    63.287229    83.953055 -0.028947428  -0.04265907  -0.87780116 0.0046100949 -0.0070369428 -0.0020128671   0.84221492    14671.564   -962496.05   -947824.48    111544.91    -343060.2   -738466.25   -969981.54    2874.3768    4025.3146    585.80166    7485.4931    3123.3084     337600.1     1.720987    1.8417865    5.3426783 
      -0.046  0.019465421  0.017669065     4600    297.98652    63.545553    63.328419    83.909078  0.005508618  0.021912061  -0.83230352  0.032104308 0.0011034449   0.02437053   0.84901045    14623.115   -962429.22    -947806.1    111568.22   -343012.28   -738447.13    -969891.2    2814.0178    4093.6875    554.27591    7461.9812    2647.8587    337670.22    1.7637416    1.8803982    5.3788389 
     -0.0465  0.019758638  0.018236506     4650    298.97269     63.56383    63.363731      83.8651  -0.01214426  0.035968479  -0.89312435 -0.024435572 0.00095353042 -0.012550911   0.90724513     14671.51   -962437.14   -947765.63    111514.01    -343028.9   -738439.52    -969954.4    2893.6573    4074.3629    549.24074     7517.261    2859.7751    337778.55    1.8091537    1.9192868    5.4190834 
      -0.047  0.020115274  0.018650826     4700    299.84121     63.58606    63.389513    83.821123 0.00024954915 -0.047313487  -0.87714307 -0.0026409541 -0.019321336 -0.016988679    0.8557776    14714.131    -962443.2   -947729.07    111375.58   -342795.86   -738462.72   -969883.01    2860.4438    4024.8542    554.51212    7439.8102    3040.4047    337856.91    1.8489175    1.9604436    5.4415954 
     -0.0475  0.020229575  0.019011841     4750    301.35149    63.593185    63.411979    83.777145  0.031649245  0.021740519  -0.88339665  0.016641537 0.0055626627 -0.013590387   0.91094346    14788.245   -962487.77   -947699.52    111387.17   -342868.68   -738451.01   -969932.51    2870.4425    4007.7232    566.57825    7444.7439    2730.5104    337837.18    1.8838754     1.999657    5.4739029 
      -0.048  0.020063015  0.019265621     4800    299.03264    63.582803    63.427771    83.733168  0.017799609 -0.012300613  -0.90671853 0.0042844448  0.025561962 -0.0024459706   0.91095821    14674.451   -962352.89   -947678.44    111683.84   -343018.42   -738445.49   -969780.07    2851.0467    4008.9556    567.18048    7427.1827    2964.7818    337688.79    1.9182142    2.0322387    5.5169144 
     -0.0485  0.019788754  0.019557419     4850    298.46554    63.565707    63.445929     83.68919 -0.026773849  -0.02100982  -0.96212013 -0.015794467 -0.023488371 -0.0034414242   0.93954046    14646.622   -962285.51   -947638.89     111886.6   -343240.89   -738460.41   -969814.69    2867.5351    4090.9419    570.70489     7529.182    3322.3252    337517.28    1.9545644    2.0622249    5.5656791 
      -0.049  0.019610751  0.019958085     4900    300.18802    63.554612    63.470862    83.645213 -0.0040909119  0.029084775  -0.92427259  0.026572279 -0.0086187422 -0.0090423942   0.93858883    14731.149    -962330.4   -947599.25    112132.19   -343469.37   -738458.72   -969795.91    2860.1272    4016.3124    589.06317    7465.5028     2958.397    337413.58    1.9895639    2.0976939    5.6033395 
     -0.0495  0.019683071  0.020319223     4950    302.49663     63.55912    63.493336    83.601235 -0.022584015 0.0057991153   -0.9993044 -0.015967535 -0.014195185 -0.0098408092   0.99205373     14844.44   -962409.75   -947565.31       111975    -343383.7   -738454.94   -969863.63    2855.0531    4043.8626    554.96611    7453.8818    3342.6739    337379.52    2.0227385    2.1377622    5.6361637 
       -0.05  0.019911106  0.020577401     5000    302.28974    63.573334    63.509402    83.557258 0.0044858073 -0.015856946  -0.98816081 -0.0069331604 0.0097265314 -0.012835877   0.98310237    14834.287   -962413.99    -947579.7    112099.44   -343526.12   -738461.61   -969888.29    2821.5101    4090.4188    562.36834    7474.2973    3288.2045     337362.8    2.0590266    2.1776713    5.6855887 
     -0.0505  0.020281718  0.020824303     5050    299.55389    63.596435    63.524766     83.51328 -0.014312594  0.043746832  -0.98578945 -0.0072190498 -0.024329714 -0.023263399    1.0035424    14700.031   -962306.15   -947606.12    112288.89   -343659.88   -738452.01      -969823    2832.1572    4100.5941    584.09431    7516.8456     3146.164    337389.36     2.102687    2.2190888    5.7591427 
      -0.051  0.020927035  0.020966653     5100    300.42166    63.636659    63.533625    83.469303 -0.044826024 0.00029625714  -0.94865329 -0.0038158599  0.037723076 -0.0089270536   0.92966357    14742.615   -962349.84   -947607.22    112160.91   -343463.75   -738464.04   -969766.88    2815.8308    4053.7376    547.47851    7417.0469    3267.3182    337472.03    2.1500286    2.2633398    5.8053592 
     -0.0515  0.021654621  0.021053529     5150    299.93057    63.682011    63.539031    83.425325  0.030616001 -0.055293377     -1.05896 0.0099390829 -0.010782852  0.025626179    1.0505079    14718.515   -962306.86   -947588.35    112127.81   -343377.87   -738450.89   -969700.95    2810.5013    4075.8683    507.72291    7394.0925    3564.8899    337563.33    2.1940873    2.3078199    5.8568164 
      -0.052  0.022027153   0.02127566     5200    299.35687    63.705232    63.552854    83.381348   0.06082734  0.025919142  -0.96593717 0.0084805457 0.0056435123 -0.042355315    1.0125782    14690.363   -962239.84   -947549.48    112091.22   -343357.73   -738443.55   -969710.07    2877.9879    4025.6507    566.59458    7470.2332    2892.3125    337581.83    2.2300974    2.3504217    5.9005095 
     -0.0525  0.021908903  0.021572491     5250    301.17845    63.697861    63.571325     83.33737  0.027078498 -0.040410666   -1.0195277 -0.021006723 -0.020020638   0.01656458     1.016196    14779.753   -962310.11   -947530.36    112074.66   -343392.36   -738443.75   -969761.45    2852.0288    4043.6653    555.64031    7451.3344    3397.8449     337462.8    2.2596006    2.3891982       5.9293 
      -0.053  0.021435815  0.021854651     5300    300.42718    63.668372    63.588884    83.293393  0.025820258 -0.0034603576   -1.0657165 -0.012775449 -0.012723775 -0.0086118538    1.0777508    14742.886   -962267.65   -947524.77    112407.86   -343632.36   -738464.09   -969688.59    2840.4748    4009.6571     570.8071     7420.939    3432.3762    337221.69    2.2890599    2.4216257    5.9531375 
     -0.0535  0.020877101   0.02213172     5350    298.16948    63.633546    63.606125    83.249415 -0.023686299  0.033229891   -1.0611212  0.001900604 0.0047891957 -0.014217274    1.0673535    14632.093   -962136.52   -947504.43    112784.09   -343894.37   -738454.15   -969564.42    2807.3147    4051.0486    569.53192    7427.8953    3459.4213    336950.62     2.324162    2.4502509    5.9928487 
      -0.054  0.020703386  0.022444345     5400    298.69268    63.622718     63.62558    83.205438 -0.063517253 -0.047484485   -1.0795696 -0.023938943  0.035927971 -0.028102379     1.028042    14657.768   -962118.94   -947461.17    113154.11   -344235.43   -738462.01   -969543.33    2829.8029    4047.2342    547.35926    7424.3964    3916.6751     336818.3    2.3673634    2.4848661    6.0136771 
     -0.0545  0.021218149  0.022914094     5450       299.17    63.654805    63.654812     83.16146 -0.042729265 -0.037640009    -1.118958  -0.01034071 -0.002011137 -0.015337869    1.0792637    14681.192   -962083.65   -947402.46    113062.51   -344172.74   -738450.61   -969560.84    2838.4834    4023.3664    615.33543    7477.1852    3945.4801     336964.8    2.4194467    2.5309475     6.055158 
      -0.055  0.022052535   0.02342865     5500    300.61881    63.706814    63.686832    83.117483  0.047134352  0.054639648     -1.09184 -0.0013388936 0.0079906014   0.00815726     1.142919    14752.289   -962111.24   -947358.95    112666.85   -343880.32   -738455.21   -969668.68    2830.6321    4095.3709    631.43915    7557.4421    3257.0639    337231.33    2.4714688    2.5840662    6.1201817 
     -0.0555  0.022630891  0.023808038     5550    300.59218    63.742864    63.710441    83.073505 -0.0019468191 0.0020704049   -1.1251147 -0.015479634 0.0043763246 -0.025102887    1.1263663    14750.983   -962097.65   -947346.66    112571.75   -343690.17   -738424.07   -969542.48    2823.4668    4062.9208    558.44813    7444.8358    3700.9329    337368.65    2.5163763    2.6362369    6.1803498 
      -0.056  0.022857131  0.023983711     5600    300.32756    63.756966    63.721373    83.029528  0.018747349 -0.00045543051   -1.1263679 0.0052168949  0.011122303 -0.0078907553    1.1359172    14737.997   -962072.91   -947334.91     112846.8   -343872.45   -738469.85    -969495.5    2817.3516    4062.3808    542.86043    7422.5928    3645.2866    337322.52    2.5569085    2.6824303    6.2345192 
     -0.0565  0.023063703  0.023980563     5650    300.22466    63.769842    63.721177     82.98555 -0.019726058  0.024112349   -1.1076928 0.0023419007 -0.0035874672 -0.023721129    1.1113197    14732.947   -962051.02   -947318.07    113116.73   -344171.23   -738450.51   -969505.01    2820.5864     4051.808    581.59527    7453.9897    3629.5963     337210.9    2.6001435    2.7233687    6.2510986 
      -0.057  0.023441304  0.023880662     5700    298.27171    63.793379     63.71496    82.941573 -0.031057653 -0.0022256261   -1.1768857  -0.01264799  -0.01891014 -0.0032190876    1.1611948     14637.11   -961924.39   -947287.28     113168.3   -344177.95   -738454.18   -969463.82    2842.7226     4111.645    585.05585    7539.4235    3981.1462     337123.7    2.6461505    2.7622026    6.2801052 
     -0.0575  0.023839347  0.023862087     5750    302.89248     63.81819    63.713804    82.897595  0.050546449 -0.038720138   -1.1930701 -0.0093151244  0.017449057 -0.022117773    1.2025717    14863.866   -962129.07   -947265.21    113197.45   -344268.44   -738442.77   -969513.77    2767.2751    4068.1076     549.3113     7384.694      3885.99    337069.88    2.6881406    2.8048903    6.3510212 
      -0.058  0.024091389  0.024014795     5800    301.26052      63.8339    63.723307    82.853618 -0.013437242   0.01745949   -1.1239912  0.018151109  0.020011166 0.0083143502    1.1273838    14783.781   -962054.38    -947270.6    113347.29   -344391.22   -738449.08   -969493.02    2823.2121    4073.6973    541.72994    7438.6393    3684.4114    337024.26    2.7227529    2.8527172    6.4249184 
     -0.0585  0.024416254  0.024216889     5850    299.61802     63.85415    63.735883     82.80964 -0.036839579 -0.024258347   -1.1971867 1.5163146e-05  0.007438007 -0.0099864892    1.1668879    14703.178   -961982.21   -947279.04    113617.26   -344606.83   -738434.04   -969423.61    2816.8251    4055.8762    568.69099    7441.3923    4139.4344    337018.72    2.7622208    2.8983269    6.4866489 
      -0.059  0.024935293  0.024624668     5900    298.50376    63.886503    63.761259    82.765663 -0.016568684  -0.05481346   -1.2123799 -0.020475701 -0.001753698  -0.02632256    1.1785751    14648.497   -961910.61   -947262.11    113552.68   -344531.62    -738455.4   -969434.34    2805.5906    4119.5268    598.61257      7523.73    4223.2487    337144.59    2.8167539    2.9451222    6.5392674 
     -0.0595  0.025405564   0.02516836     5950    300.63698    63.915816    63.795092    82.721685  0.070435277  0.049248195   -1.1564526 -0.0019562547   0.01267978 0.00035404544    1.2166359    14753.181   -961986.95   -947233.77    113401.06   -344330.67   -738423.76   -969353.37    2839.8414    3960.4483    566.13183    7366.4215    3410.7054    337298.94    2.8739029    2.9977022    6.5767558 
       -0.06  0.025619318  0.025602323     6000    301.03328    63.929139    63.822097    82.677708 -0.025699345 -0.0031116402   -1.2557026 0.0057027731 0.0044716715 -0.0091167166    1.2416151    14772.629    -961961.8   -947189.17    113404.58   -344311.42   -738432.11   -969338.96      2788.32    4046.8626    541.97314    7377.1557    4225.7213    337332.63    2.9205301    3.0488344     6.605335 
     -0.0605  0.025630866  0.025867407     6050    300.33215    63.929859    63.838593     82.63373  0.035391195  0.026445316   -1.2186213 -0.033809837  0.024712935  0.020062504    1.2521494    14738.222   -961891.76   -947153.54     113619.2   -344480.04   -738451.92   -969312.75    2834.0908    4029.3598    557.54199    7420.9926    3805.5261    337244.14    2.9592385    3.0920123    6.6737584 
      -0.061  0.025662146  0.025892586     6100     302.7423    63.931809     63.84016    82.589753 -0.027736105   0.01196496    -1.234433 0.0081293271  0.039742742 -0.012937007    1.2292435    14856.496   -961975.63   -947119.14     113742.4   -344597.95   -738438.54    -969294.1    2831.5536    3950.6754    536.23452    7318.4636    4112.8519    337083.21    2.9937221    3.1280945    6.7397753 
     -0.0615   0.02584761  0.025720231     6150    301.03186    63.943369    63.829434    82.545775  -0.02659462  0.043928881   -1.2490083 -0.011165922 -0.008217843 -0.0090975932     1.259485    14772.559   -961877.86   -947105.31    113886.36    -344763.4   -738447.03   -969324.07    2859.5308    4015.1965    571.47393    7446.2012    4051.8924    336908.03      3.02662    3.1644579    6.7577444 
      -0.062  0.026146545  0.025506155     6200    298.20315    63.962003    63.816113    82.501798 -0.041451479 -0.061495199   -1.3348341 -0.0074466484  0.016228436 -0.020721013    1.2843523    14633.746   -961724.43   -947090.68    114237.01   -344939.97   -738438.84    -969141.8    2793.2489    4045.2372    578.88699    7417.3731    4729.9311    336756.36    3.0629122    3.2020672    6.7722963 
     -0.0625  0.026611161  0.025451345     6250    300.71323    63.990963    63.812702     82.45782  0.022347866 0.0082684882   -1.2402908 -0.0022017752 -0.012379635  0.029611712    1.2568939    14756.923   -961810.53    -947053.6    114223.75   -345082.47   -738450.24   -969308.96    2872.4253    4060.3801    565.62607    7498.4315    3979.5194    336711.25    3.1106194    3.2421545    6.8120314 
      -0.063  0.027123607  0.025649509     6300    298.72083    64.022905    63.825033    82.413843 -0.011312018 -0.021314283   -1.3501992 -0.013969976 1.2847636e-05 -0.0041508599     1.334153     14659.15   -961690.07   -947030.92    114187.19    -344915.3   -738435.37   -969163.47    2846.8763    4046.3429    580.17977     7473.399    4549.1424    336764.72    3.1662292    3.2899177     6.859957 
     -0.0635  0.027534531  0.026035444     6350     299.0845    64.048519     63.84905    82.369865  0.025519332 -0.016455269   -1.3025771 -0.011613361 -0.011471427 -0.013840561    1.3081398    14676.997    -961686.1    -947009.1    114122.28   -344789.36    -738427.4   -969094.48    2852.2716    4002.8961    553.21653    7408.3842    4255.3271    336846.38    3.2228408     3.343902    6.9018317 
      -0.064  0.027692494  0.026549266     6400    298.15292    64.058365    63.881024    82.325888 -0.00022138463   -0.0025193   -1.3294759  0.038738324 0.0031657134 -0.015730501    1.3300912    14631.281   -961605.46   -946974.18    114289.87    -344923.9   -738416.54   -969050.56     2852.923    4059.7831    532.40096    7445.1071    4382.6518    336886.92    3.2791285    3.3940213    6.9599978 
     -0.0645  0.027759205  0.027150133     6450      300.638    64.062523    63.918416     82.28191  0.010145614 0.0095589238    -1.321892 -0.018551598 0.0048139839  0.010855147    1.3322907    14753.232   -961690.98   -946937.75    114450.25   -345162.32   -738432.76   -969144.84    2899.8618    3963.2247    590.77079    7453.8573    4283.8636    336925.91    3.3355645    3.4409376    7.0094135 
      -0.065  0.027800084  0.027747004     6500    298.69143    64.065071    63.955558    82.237933 0.0029964738 -0.011851827   -1.3635964 -0.014956345  0.012241472 0.00046466353    1.3596419    14657.707   -961552.04   -946894.33    114408.87   -344991.42   -738435.43   -969017.99    2839.5264    4033.2457    593.17116    7465.9433    4515.0151    336954.91    3.3865621    3.4902771     7.073646 
     -0.0655  0.027749354  0.028202895     6550    300.52617    64.061909    63.983928    82.193955 -0.012834731  0.034035026   -1.3421918 -0.004541557 -0.00025858607 -0.0076526194    1.3534886    14747.744   -961603.55    -946855.8     114382.2   -344991.23   -738424.46   -969033.49     2848.825    4008.3061    572.81437    7429.9455    4345.7241    336907.48    3.4304672    3.5418137    7.1161449 
      -0.066  0.027721656  0.028485768     6600    297.62449    64.060183    64.001531    82.149978 -0.026860789 0.0018449651    -1.392716  0.023666786 -0.038378317 -0.017935635    1.3829882    14605.349   -961414.13   -946808.78    114760.64    -345218.8   -738436.42   -968894.58    2846.5953    4030.0077    603.84267    7480.4456    4663.9751    336810.78    3.4765652    3.5894196    7.1695851 
     -0.0665   0.02789188  0.028704642     6650    301.50119    64.070793    64.015151       82.106 -0.00020702273 -0.015790383    -1.404411 0.0084276852   0.03690909    0.0241058    1.3986395    14795.591   -961543.15   -946747.56    114852.15   -345326.81   -738447.96   -968922.62    2802.7645    3980.2857    596.41835    7379.4686    4672.7803    336757.88    3.5294407    3.6379294    7.2213007 
      -0.067  0.028128203  0.028870271     6700    301.38286    64.085524    64.025458    82.062023 0.0046294246  0.017591467   -1.4368071  0.009185954 -0.0036187343 -0.0088571676    1.4481433    14789.784   -961501.26   -946711.48    114823.91   -345306.62   -738424.23   -968906.94    2804.2702     4047.496    553.91149    7405.6777    4653.6268     336709.1    3.5833042    3.6900686    7.2509575 
     -0.0675   0.02836789  0.028982843     6750     298.4589    64.100464    64.032463    82.018045 -0.033392086 0.0010732267   -1.4039034 -0.010224892 0.0052073954 7.5765986e-05    1.3882072    14646.296   -961339.45   -946693.15    115042.91   -345420.84   -738421.91   -968799.84    2875.8473    4022.0919    562.45688     7460.396    4724.8039    336643.94    3.6348282    3.7435013    7.2872905 
      -0.068  0.028657639  0.029214196     6800    299.49421    64.118525     64.04686    81.974068  -0.01762942  0.010458083   -1.4441835  -0.02869547 -0.0065008545  0.030379249    1.4426641    14697.102   -961358.69   -946661.59    115129.17   -345481.73   -738413.88   -968766.45    2825.6208    4024.7052    557.42704    7407.7531    4774.5863     336633.9    3.6882386    3.8005992    7.3509638 
     -0.0685  0.029064549  0.029490055     6850    302.26953    64.143888    64.064026     81.93009 -0.032455208 0.0053014771   -1.4447787 0.0065546195 0.0045009355  0.026097327     1.432355    14833.296   -961457.91   -946624.62    115039.42   -345471.66   -738427.43   -968859.67    2819.8745    4036.7824    545.09625    7401.7531    4842.2813    336676.61    3.7456937    3.8616825    7.4044237 
      -0.069  0.029590138  0.029645353     6900    298.84935    64.176649     64.07369    81.886113   0.01904099 0.0050100384   -1.4656213 -0.011077994  0.011248419 0.0062802886    1.4779898    14665.457   -961270.72   -946605.26    115254.09   -345573.01   -738425.55   -968744.47     2850.415    4052.1682    571.17046    7473.7536    4742.3975    336718.54    3.8085385     3.922412    7.4669398 
     -0.0695  0.030056779  0.029785847     6950    300.54114    64.205736    64.082433    81.842135  0.025932636 -0.011998001   -1.4823308  0.013741734 -0.0031490495 -0.0078562165    1.4899226    14748.478   -961316.37   -946567.89       115223   -345512.42   -738425.34   -968714.76    2792.7252    4045.9728    559.69564    7398.3937    4830.6479    336736.17     3.874215     3.981919    7.5237874 
       -0.07  0.030189783  0.030027885     7000    303.63471    64.214027    64.097495    81.798158  0.023732568 -0.013411822   -1.4773205   0.00752304 -0.0046224289  0.026451899    1.4836163    14900.289   -961449.02   -946548.74    115148.03   -345541.96   -738428.67   -968822.61    2835.6021     3993.191    544.78948    7373.5826    4826.0541     336677.8    3.9330603    4.0387777    7.5694723 
     -0.0705  0.029935141  0.030305277     7050    300.44395    64.198154    64.114757     81.75418 -0.016090127 0.0056370898   -1.5356926 -0.010840905  0.018395004 -0.011746516    1.5311636    14743.709   -961303.63   -946559.92    115510.45   -345793.28   -738426.68   -968709.51    2827.9023    4027.5088    550.47608    7405.8873    5086.4236    336504.21    3.9815568    4.0903759    7.6344609 
      -0.071   0.02962884  0.030593639     7100    299.13491    64.179062    64.132701    81.710203   0.01070831 -0.014515265   -1.5138576 0.0037353558 0.0021926801 -0.00069175261     1.512131     14679.47   -961229.95   -946550.48    115879.25   -346085.33   -738427.21    -968633.3    2808.8367    4036.3525    558.15837    7403.3476    4992.7282    336317.28     4.025277    4.1449416    7.7155023 
     -0.0715  0.029587185  0.030986193     7150    299.02737    64.176465    64.157129    81.666225  -0.06571341 -0.019020389   -1.5729946  0.012398424 -0.024365089  0.019305146    1.5322586    14674.193    -961175.5   -946501.31     115967.5   -346056.14   -738427.91   -968516.55    2759.5956    4029.3399    552.11697    7341.0525    5453.5023     336250.7    4.0741619    4.2090363    7.7823169 
      -0.072  0.029876156  0.031404663     7200    300.39403    64.194478     64.18317    81.622248 -0.022857037   0.01354823   -1.5490708 0.0067921015 -0.0080102552  0.018734312     1.545186    14741.259   -961172.31   -946431.05    116017.48   -346229.53   -738436.99   -968649.03    2859.2836    4079.6102    537.83121     7476.725    5126.6703     336300.4    4.1353653    4.2780556    7.8517717 
     -0.0725  0.030453394  0.031825492     7250    299.90824    64.230458    64.209358     81.57827 -0.0072777435 0.0043095848   -1.6107376 0.00060857178 0.0067081263 -0.0077165667    1.6093826     14717.42   -961102.16   -946384.74    116047.83   -346146.64   -738445.65   -968544.47    2800.9643    4095.6719     545.6692    7442.3054    5308.6792    336444.81    4.2103134    4.3510365    7.9232954 
      -0.073  0.031175334   0.03217325     7300    298.98835    64.275458    64.230999    81.534292 -0.011362245 0.0088550725   -1.5841299 0.0099031924 -0.013242606  0.036990909    1.5845281    14672.278    -961030.7   -946358.42    116050.29   -346047.84   -738418.75    -968416.3    2838.7061    3975.8024    571.08973    7385.5982    5219.6302    336612.44    4.2903063    4.4240466    7.9805576 
     -0.0735  0.031947406  0.032453438     7350    296.00182    64.323583    64.248434    81.490315 -0.0067735582 -0.0018947309   -1.6009777 0.0026570498  0.014122564 -0.011557266    1.5969687     14525.72    -960819.8   -946294.08    116102.13   -346065.48   -738403.19   -968366.54    2893.3124    4093.8192     559.6102    7546.7417    5295.3237    336774.17    4.3699709    4.4937805    8.0554822 
      -0.074  0.032602115  0.032723906     7400    299.59732    64.364393    64.265265    81.446337  0.039735581 -0.0026942581   -1.5612207 0.0072871552 0.0037297834  0.022455756    1.5807109    14702.162   -960929.03   -946226.87    116112.44   -346124.58   -738421.43   -968433.57    2873.7034    4067.1321    563.71003    7504.5455    5014.1604     336894.2    4.4422047    4.5608763    8.1359629 
     -0.0745  0.033055618  0.032912996     7450    299.41257    64.392661    64.277032     81.40236 -0.023324118 -0.013548672    -1.625318 -0.019053548 -0.0018540645 0.0086216063    1.6073153    14693.096    -960871.9   -946178.81    116177.89   -346109.45   -738402.47   -968334.04    2828.0348    4043.1818     590.9177    7462.1343    5468.1824    336921.85    4.5006856     4.624179    8.2149173 
      -0.075  0.033387969  0.032989311     7500    298.24576    64.413377    64.281781    81.358382  0.014206207  0.019052745   -1.6340522  0.019375855 -0.0095423527  0.040671693     1.652613    14635.837   -960771.68   -946135.84    116542.67   -346426.16   -738415.14   -968298.62    2882.4299    4101.3525     543.1606    7526.9431    5266.2004    336873.05    4.5549983    4.6825637     8.286969 
     -0.0755  0.033613228  0.033179308     7550    300.72353    64.427418    64.293605    81.314405 0.0015141473 -0.040186027   -1.6645608 -0.015040632   0.01091495  0.035196735    1.6470645    14757.428   -960848.01   -946090.59    116723.77   -346564.66   -738400.42   -968241.31    2805.0582    4058.0712    530.16476    7393.2942    5603.1999    336826.29    4.6151225    4.7420266    8.3261947 
      -0.076  0.033708275  0.033588111     7600    300.24663    64.433342    64.319044    81.270427 0.0066255954 -0.015043432   -1.6784307 -0.033956655 -0.022137212 -0.006909684     1.675841    14734.026   -960773.82    -946039.8    116831.04   -346614.71   -738416.15   -968199.82    2798.4915    4076.6764    550.83384    7426.0018    5549.3001     336808.3     4.679283    4.8022481    8.3268494 
     -0.0765  0.033796662  0.034102722     7650    301.90059    64.438851    64.351068     81.22645 -0.008643991 -0.00016089877   -1.6929874 -0.005285054  0.011192725  0.014491487    1.6889236    14815.191   -960815.18   -945999.99    116802.54   -346645.43   -738419.72   -968262.62    2842.7791     4041.971     562.6872    7447.4372    5598.4614    336822.44    4.7480936    4.8602171    8.3987346 
      -0.077  0.033910794  0.034511825     7700    300.82353    64.445966    64.376526    81.182472   0.02327934  0.015090921   -1.6963168 -0.016460928  0.020071193  0.041650082    1.7176212    14762.336   -960756.11   -945993.78    116798.36   -346539.31   -738408.56   -968149.51    2760.1255    4063.4691    569.79984    7393.3945    5454.2199    336810.44    4.8147266     4.922127    8.4795052 
     -0.0775  0.034022101  0.034735932     7750    300.40223    64.452904    64.390472    81.138495 -0.024425855  0.016243047   -1.7092997 -0.013814797 0.0076754858  0.022149933     1.706223    14741.662   -960724.02   -945982.36    116886.44   -346641.84   -738412.34   -968167.75    2839.2788    4036.1239    568.31747    7443.7202    5650.0781    336737.16    4.8736538    4.9923083    8.5471196 
      -0.078  0.034140916  0.034749108     7800    298.90934     64.46031    64.391291    81.094517  -0.04024555 0.0084817205   -1.7230358  0.015746293 -0.0046958498 -0.0020243724    1.7079161    14668.401   -960624.67   -945956.27    117057.03   -346773.16      -738415   -968131.13    2845.8365    4092.1967    568.43353    7506.4668    5772.8419     336597.6    4.9294786    5.0591098    8.6172113 
     -0.0785  0.034435982  0.034572856     7850    301.28546    64.478702    64.380323     81.05054  0.012446972  0.019803366   -1.7223519 -0.013794256 0.0029679245  0.031213251    1.7395009    14785.004    -960710.9    -945925.9    117347.25   -346994.56   -738417.69   -968065.01    2800.7924    3983.1538    570.15819    7354.1044     5560.002    336453.73    4.9882038    5.1172003    8.6905335 
      -0.079  0.034971678  0.034397188     7900    297.86382    64.512093    64.369392    81.006562  -0.04598039 -0.032483417   -1.8191396 -0.011040278   0.02518726  0.038995802    1.7818639    14617.094   -960493.83   -945876.74    117521.72   -347127.71   -738402.53   -968008.52    2823.6813    4114.7839    576.21706    7514.6823    6242.6298    336388.19    5.0540716    5.1765695    8.7523607 
     -0.0795  0.035802506   0.03441107     7950    301.39872     64.56388    64.370256    80.962585 -0.029261146 -0.0097430558   -1.7578702 -0.013875154 -0.013816931 0.0034141963    1.7387911    14790.562   -960617.73   -945827.17    117555.78   -347126.11   -738394.72   -967965.05    2873.0713     3925.859    548.38907    7347.3194    5911.2572    336479.97    5.1325316    5.2478988    8.8042635 
       -0.08  0.036740892  0.034663638     8000    299.34634    64.622372    64.385973    80.918607  0.025234738 -0.0065249585   -1.7897542 -0.0022613769 0.0048284364  0.035934846    1.8004192    14689.845   -960471.95   -945782.11    117467.05   -347016.38   -738392.73   -967942.06    2789.5385    4140.7452    539.81721    7470.1009    5826.2832    336684.06    5.2204725    5.3279866    8.8551987 
     -0.0805  0.037571639  0.035015776     8050    301.39662    64.674154    64.407886     80.87463   0.02236716 -0.030140222   -1.8065702 0.0066321044  0.026559048  0.016499781    1.8041067    14790.459   -960540.18   -945749.72    117444.92   -346963.31    -738385.6      -967904    2812.7821    4015.0587     535.9772    7363.8181    5968.7254    336885.34    5.3050226    5.4078705    8.9321408 
      -0.081  0.038115879  0.035431332     8100    299.05672    64.708078    64.433745    80.830652 -0.014657567  0.010409475   -1.8332435 0.0020851936 -0.025996519 -0.005506227      1.83183    14675.633   -960385.03    -945709.4    117581.96   -346979.02   -738395.93   -967792.99    2765.2117      4080.35        562.4    7407.9617    6044.8774    337014.01    5.3725238    5.4859547      9.03783 
     -0.0815  0.038297142  0.035949484     8150    299.80128    64.719376     64.46599    80.786675  0.070229791 -0.019023653   -1.7720814 -0.016362412  0.010668133  0.021988179    1.8000664    14712.171   -960361.67    -945649.5    117527.93   -347017.96   -738384.61   -967874.64    2860.6767    4079.1788    573.11433    7512.9699    5661.2395    337058.06    5.4251849    5.5615423    9.1143143 
      -0.082  0.038035173  0.036573239     8200    299.76588    64.703047    64.504805    80.742697  0.019839247 -0.053506672   -1.8438447 0.0085227622 0.0055901297 0.0047320481    1.8282184    14710.434   -960320.63    -945610.2    117724.31   -347025.12   -738398.86   -967699.67    2767.4895    4038.4593    573.08876    7379.0376    6176.5345    336992.36    5.4765271    5.6252085    9.1933302 
     -0.0825  0.037565956  0.037324871     8250      298.132      64.6738    64.551578     80.69872 -0.030334837   0.02664045   -1.8235265  0.010640089  0.034954375   0.01236996    1.8235718    14630.254    -960177.3   -945547.05    117910.32   -347244.12    -738375.7    -967709.5    2909.1844    4064.8487    558.15917    7532.1922    6011.0892    336900.68    5.5366748    5.6812202    9.2726637 
      -0.083  0.037245619  0.037968112     8300    300.32043    64.653833    64.591607    80.654742  0.023538765  0.017165401    -1.886646 -0.025711577  -0.02726376  -0.01115728    1.9082083    14737.647   -960231.51   -945493.86    117864.24    -347194.2   -738388.42   -967718.38     2880.794    4032.3228    573.75205    7486.8688    6072.6765    336821.86    5.5976035    5.7399767     9.323298 
     -0.0835  0.037034464  0.038338944     8350    299.30953    64.640671    64.614683    80.610765 -0.0023385171  0.026140878   -1.8676946  0.025047599  0.019980262 0.0072197603    1.8806181    14688.039   -960147.02   -945458.98    117987.98   -347266.98   -738389.26   -967668.26    2861.2762    4084.0517    575.91653    7521.2445    6065.9337    336689.92    5.6527139    5.7949769    9.3521984 
      -0.084  0.037001347  0.038461175     8400    299.85904    64.638607    64.622289    80.566787 -0.048366895 0.0018708094   -1.9276567 -0.003980879  0.013143389 -0.003932169    1.9050662    14715.005   -960144.79   -945429.78    118244.88   -347424.72   -738390.57    -967570.4      2849.73    3987.4154    588.46607    7425.6115    6494.4577     336535.1     5.712965    5.8434126    9.3851173 
     -0.0845  0.037207569  0.038525171     8450    298.53108    64.651461    64.626272     80.52281 -0.0052934949  0.017563814    -1.906268 -0.010440632 -0.0069430601 -0.014375328     1.912791    14649.838   -960033.68   -945383.84    118504.53   -347715.83   -738374.64   -967585.94    2821.9803    4159.9981     570.2787    7552.2572    6230.7679    336439.03    5.7798599    5.9014031     9.435136 
      -0.085  0.037609743  0.038750943     8500    300.79641    64.676529    64.640321    80.478832 -0.042897756 -0.026642559   -1.9187878  0.010044188  0.030689238  0.011195018    1.8849999    14761.005   -960094.77   -945333.77    118639.75      -347756    -738373.3   -967489.56    2784.2909    4038.9643    571.52858    7394.7838    6541.0908    336458.79    5.8472233    5.9765669    9.4882445 
     -0.0855   0.03828526  0.039124079     8550    301.99541    64.718636    64.663541    80.434855 -0.030375307  0.010949922   -1.9733441  0.015621284 -0.031705244 0.0022759684    1.9649153    14819.844   -960105.98   -945286.13    118590.39   -347712.32   -738398.16    -967520.1    2813.5006    4057.1422    543.48135    7414.1242    6555.7018    336614.73    5.9218378    6.0573895    9.6037875 
      -0.086  0.039120152  0.039389538     8600    300.23242    64.770676     64.68006    80.390877  0.041948733  0.017867823   -1.9360527 -0.019269673  0.021709992  0.011464149    1.9668146    14733.328   -959989.85   -945256.52    118407.31   -347546.37   -738387.61   -967526.66    2856.2267    4093.8153    586.77139    7536.8133    6172.3371    336787.23     5.998838    6.1327489    9.7039177 
     -0.0865  0.039754601   0.03944926     8650    301.15926    64.810223    64.683777      80.3469 0.00057974505 -0.00016590437   -1.9531015  0.013711091  0.010872977 0.00094178182    1.9535443    14778.811   -960026.79   -945247.98       118579   -347629.88   -738374.12   -967425.01      2765.78    4046.3982    586.03978     7398.218    6423.8429    336827.86    6.0623974    6.1989584    9.8018877 
      -0.087   0.04001585  0.039494509     8700    300.26312    64.826507    64.686593    80.302922   0.01458246 -0.041035378   -2.0083757  0.016086062 -0.00045073264 0.0033815566    1.9959338    14734.835   -959955.96   -945221.12    118930.67   -347904.56   -738374.17   -967348.06    2829.6943    4005.1455    557.26423    7392.1039    6694.0658    336742.75    6.1155675    6.2589422    9.8370923 
     -0.0875  0.040031453  0.039755039     8750    298.85011     64.82748    64.702805    80.258945 0.0010377462 -0.0077642069   -2.0939214 0.0059775188 -0.0015506918 -0.0011554885    2.0906004    14665.494   -959842.75   -945177.26    119388.57   -348230.12   -738380.59   -967222.13    2831.3984    3965.8248    582.15722    7379.3803    6910.5941    336647.73    6.1795292    6.3121137    9.9003349 
      -0.088   0.04010009  0.040208943     8800    299.17507    64.831758    64.731051    80.214967  0.015305403  0.013966081   -2.0291849 -0.027930046  0.025285752  0.023391223    2.0452638    14681.441   -959778.74   -945097.29     119336.6   -348299.47   -738385.92   -967348.79    2858.8978    4104.8391     606.3158    7570.0527    6579.2036    336632.37    6.2534525    6.3694763    9.9573482 
     -0.0885  0.040297278  0.040615686     8850     301.5267    64.844049    64.756362     80.17099 -0.052336297 -0.044915688    -2.042504 0.0082679712 -0.0017349041 -0.034991899     1.994863    14796.843   -959836.15   -945039.31    119387.73   -348242.58   -738368.14   -967222.99    2831.6088    4009.0562    546.17309    7386.8381      7039.25    336643.18    6.3160218    6.4383943    10.019332 
      -0.089  0.040585489  0.040910879     8900    300.51514    64.862014    64.774732    80.127012 0.0017909061  0.025603031   -2.0895201  0.023847604  0.011943749 -0.0058101041    2.1038494    14747.202   -959751.78   -945004.58     119719.5   -348476.05   -738383.97   -967140.53    2815.8056     4004.999    567.94263    7388.7472    6783.8675     336647.2    6.3674502    6.5107839    10.088633 
[...]
     -0.2775   0.37687477    0.3737062    27750    299.50087    85.823675    85.484216    63.547493  0.023483513  0.030939602  -0.46098969  0.011837797 0.0037672743 0.00032187977   0.48871816    14697.429   -955022.98   -940325.55    114446.57   -340448.46   -735801.72   -961803.62    2522.7327    3633.7434    624.16027    6780.6363       1337.5     466220.6    150.94152    150.41319    155.40601 
      -0.278   0.37702592   0.37393791    27800     300.3493    85.833097    85.498635    63.503516  0.017227452  0.015761327   -0.4067068 0.00038876024 -0.0013322241  0.010711821   0.42361641    14739.064   -955060.93   -940321.86    114421.92   -340471.64   -735805.59   -961855.31    2457.0565    3675.9181    661.41056    6794.3852    1229.4367     466027.7    151.30534     150.7213    155.59572 
     -0.2785   0.37668522   0.37398968    27850    297.94742     85.81186    85.501856    63.459538   -0.0149519 -0.048452034  -0.43454415  0.015776711  0.038022558  0.011854436   0.41064457    14621.196   -954930.25   -940309.05    114959.02   -340813.98   -735811.26   -961666.21    2507.8477    3595.3058    632.81285    6735.9663    1638.1218    465607.29     151.4479    150.86369    155.73457 
      -0.279    0.3765215   0.37447169    27900    301.82657    85.801655    85.531851    63.415561 0.0049052704 0.0053499596  -0.46210753 0.0023274563 -0.0042095828 -0.0051284494   0.46739399    14811.558   -955095.12   -940283.56    115132.41    -341133.5   -735830.21    -961831.3     2543.846    3552.0624    640.27412    6736.1826    1486.4785    465392.49    151.69743    151.16966    155.97098 
     -0.2795   0.37665739   0.37532618    27950    303.02957    85.810125    85.585026    63.371583 -0.028625582  -0.02573552  -0.47435381   0.01907594 -0.0078190641 -0.020584224   0.45001823    14870.593   -955153.47   -940282.87    115247.65   -341299.41   -735816.04   -961867.79    2490.1731    3600.0796    624.07002    6714.3227    1739.3368    465404.82    152.14738    151.62044    156.53178 
       -0.28   0.37718213   0.37651208    28000     301.9568    85.842833    85.658823    63.327606 -0.029473929 -0.018075257  -0.43685088 -0.003513357 0.00077207835 0.0056879883   0.41335862    14817.949   -955135.02   -940317.07    115143.15   -341279.61   -735813.91   -961950.37    2491.1083    3645.8001    678.44846    6815.3568    1593.5523     465660.3    152.82685    152.24834      157.178 
     -0.2805   0.37801801   0.37771656    28050     301.2156    85.894935    85.733776    63.283628 -0.011721602  0.015535612  -0.44290659 -0.0073051677 -0.007504441 -0.0020533594   0.44582288    14781.576   -955126.89   -940345.32    114739.62   -340764.25   -735827.32   -961851.94     2486.727    3594.5873     643.7374    6725.0516    1444.5023    466026.79    153.57908    152.99253    157.78659 
      -0.281   0.37873577   0.37839684    28100    300.41775    85.939675    85.776109    63.239651  0.049201864  0.047396147  -0.44871519 -0.013597477 -0.006310846  0.009721515   0.49797915    14742.423   -955101.32    -940358.9    114526.28   -340543.75   -735827.18   -961844.65    2485.7828    3619.3349     638.2099    6743.3276    1158.3755    466175.57    154.12692    153.61115     158.1534 
     -0.2815   0.37907705   0.37841632    28150    300.87666    85.960948    85.777322    63.195673  -0.01285008 -0.017764494  -0.46670871 0.0038657625  0.027149667 0.0041982406   0.45397179    14764.943   -955118.47   -940353.53     114710.1   -340624.74   -735850.47   -961765.11    2429.2012    3567.3553    650.07383    6646.6303    1636.0664    465973.29     154.4142    153.94138    158.42786 
      -0.282   0.37932794   0.37826968    28200    300.19103    85.976586    85.768196    63.151696 0.0032527694 0.0036848862  -0.44267649  -0.01156813  -0.02462413  0.010544207    0.4489987    14731.297   -955083.94   -940352.65    114994.29   -340998.35   -735840.61   -961844.67    2539.8768    3555.7466    665.10489    6760.7282    1433.4693    465684.19    154.65801    154.16174    158.99111 
     -0.2825   0.37979012   0.37848649    28250    297.33859    86.005395    85.781688    63.107718 -0.035053723 -0.023524688  -0.45099632   0.01119975  0.012634823 -0.014742319   0.42360809    14591.319   -954927.56   -940336.24    115294.37   -341152.04   -735828.62   -961686.28     2484.727    3647.8952    626.09997    6758.7222    1676.3705    465589.06    155.00233    154.56877    159.48124 
      -0.283   0.38080021   0.37925842    28300    298.81424    86.068356    85.829725    63.063741 -0.047954465 -0.023328356  -0.40914967 -0.0030041279    0.0106559  0.019306953   0.37609739    14663.734   -954972.36   -940308.62    114956.76   -340911.07   -735825.95   -961780.26    2531.3789    3595.0772    681.44956    6807.9056       1580.5    465865.94    155.57026    155.28223    160.08286 
     -0.2835   0.38252955   0.38007934    28350    297.73866     86.17615    85.880809    63.019763 -0.0093905011 0.0036937387  -0.43287615 -0.0011479491 -0.006529681 -0.00027050135   0.43033053    14610.952    -954893.3   -940282.34    114809.69   -340746.83   -735839.07   -961776.21    2517.8606     3687.433    677.62331    6882.9169    1442.7927    466401.55    156.37327      156.132    161.06236 
      -0.284   0.38457689   0.38058844    28400    300.69497    86.303766     85.91249    62.975786 -0.00013305907  0.018518566  -0.42711381 0.0033803211 -0.016093768 0.00070979864   0.43753531    14756.027    -955012.4   -940256.37    114514.23    -340402.9   -735839.59   -961728.27    2482.9968    3591.4036    641.46687    6715.8673    1344.6116    466938.46    157.23678    156.95255    162.02574 
     -0.2845   0.38631214   0.38065074    28450     299.0463    86.411927    85.916367    62.931808 -0.0049252398  0.040151444  -0.43342547 -0.018193038  0.008372202  0.012977356   0.45460774    14675.122   -954912.39   -940237.27    114265.72    -340140.2   -735829.11   -961703.59    2478.6989    3643.7416    668.75512    6791.1956    1309.9737    467218.26    157.91048    157.58642    162.55104 
      -0.285   0.38749411   0.38032144    28500    300.35303    86.485602    85.895875    62.887831  0.013038708 -0.023979905  -0.39478527 -0.027593263 0.0098452055 0.0058164465   0.39404332    14739.247   -954962.22   -940222.97    114569.46   -340449.17   -735821.12   -961700.83    2507.6495    3587.9913    642.96853    6738.6093    1334.7363    467178.38    158.32629    157.98358    162.89397 
     -0.2855   0.38844182   0.38010397    28550    301.51473    86.544675    85.882342    62.843853  0.024879678 -0.042594883  -0.42824862  0.017756839 0.0099878175 0.0076002767     0.425114    14796.255   -955014.57   -940218.32    114701.52   -340636.71   -735829.69   -961764.88    2532.2615    3583.5706    634.47958    6750.3117    1467.1069    467096.96    158.66251    158.38036     163.1937 
      -0.286   0.38910771   0.38056669    28600    299.36125    86.586181    85.911136    62.799876 -0.014508241 -0.037816204  -0.42926327  0.021573651  0.031365669 0.0041210452   0.40901899    14690.578   -954921.94   -940231.36    114973.37   -340862.77   -735793.66   -961683.06    2492.5434    3590.1582    678.42116    6761.1227    1584.3004    467150.52    159.08945    158.88192    163.69023 
     -0.2865    0.3895262   0.38194508    28650    302.00801    86.612267    85.996912    62.755898 0.0038778585  -0.05485838    -0.409982 -0.018843149  -0.01007462 -0.0094666554   0.38994858    14820.462   -955059.39   -940238.93    114895.77   -340884.48   -735831.13   -961819.84    2456.3946    3663.7072    640.35114    6760.4529    1516.4488    467430.25    159.73717    159.51721    164.34408 
      -0.287   0.38986082   0.38385557    28700     303.3952    86.633124      86.1158    62.711921  0.018873424 -0.019898466  -0.42325164  0.015543764 -0.013259331 -0.0026640699   0.42556945    14888.536   -955148.95   -940260.42    114868.53   -340908.79   -735835.66   -961875.92    2525.4401    3556.8829      644.648    6726.9709    1395.7618    467861.08    160.53593    160.23682    165.12689 
     -0.2875   0.39018146    0.3857225    28750    302.27079     86.65311    86.231977    62.667943 -0.022008778  0.015168801  -0.43907628 0.0020007071  0.016243155  0.019051207   0.43900502    14833.357   -955150.86    -940317.5    114570.89   -340618.62   -735800.17    -961847.9    2454.8161    3576.8003    665.42225    6697.0387    1466.9504    468271.73    161.33089     160.9375      165.936 
      -0.288   0.39040283   0.38709028    28800    300.65831    86.666909    86.317093    62.623966  0.019129407  0.023928486  -0.42616367 0.0019190257  0.021443416 -0.027160393   0.45171841    14754.228   -955114.09   -940359.86    114356.54   -340323.35   -735768.34   -961735.15    2447.9726    3521.6422    651.44892    6621.0636      1260.32    468479.59    161.93731    161.53814      166.478 
     -0.2885    0.3903718   0.38788366    28850    300.44638    86.664975    86.366464    62.579988  0.018928858 0.0027270203  -0.42542404  -0.01684205 -0.022708438 -0.022666464   0.44096706    14743.828   -955108.19   -940364.36    114428.29   -340458.91    -735798.9   -961829.52    2466.0298    3616.3786    638.91476    6721.3231     1328.294    468407.92    162.27723    161.96972    166.77554 
      -0.289   0.39042177   0.38825654    28900    302.46704     86.66809    86.389668    62.536011  -0.03025972  0.016255851  -0.42492892 0.00065738335 -0.0073155584 -0.0017159669   0.42006716    14842.988   -955216.21   -940373.23     114652.5   -340667.82   -735851.06   -961866.38    2466.4667    3519.4257    664.27336    6650.1657    1443.9766    468221.34    162.55607    162.28181      167.079 
     -0.2895   0.39076697   0.38854142    28950    299.22622    86.689607    86.407395    62.492033 -0.050015124 -0.019663024  -0.41268707 0.0055035374 -0.0062223848 -0.017892577   0.38029922    14683.951   -955058.59   -940374.64    115090.06   -340913.59   -735856.04   -961679.57     2477.944    3510.7223    632.31112    6620.9775    1586.8582    468104.27    162.93866    162.60367    167.40532 
       -0.29   0.39165228   0.38897588    29000    298.36462     86.74479    86.434431    62.448056 -0.0085801986 -0.0073160692  -0.41881487  0.011962716  0.016278123 -0.015498413   0.41322818     14641.67    -954994.8   -940353.13    115004.25   -340873.04   -735805.88   -961674.66    2488.0502    3548.6145    643.19702    6679.8617    1430.0884    468219.07    163.48811    163.08278    167.91731 
     -0.2905   0.39309801   0.38951503    29050    301.07947    86.834906    86.467982    62.404078 -0.023379078 -0.015017323  -0.44988145 0.0095050609  0.014082244 -0.0017948066   0.43175934    14774.896   -955098.48   -940323.58    114856.47   -340849.84   -735783.77   -961777.13    2484.4877    3561.8785    632.28735    6678.6536    1606.3092    468557.22    164.14155    163.76642    168.69448 
      -0.291   0.39448163   0.39020034    29100     299.0937     86.92115    86.510628    62.360101  0.012833975  0.019167955  -0.41806205 0.0087182334 -0.0034856274 -0.0081179639   0.43462968    14677.448   -954981.34   -940303.89    114597.13   -340531.05   -735756.47   -961690.39     2468.846    3608.8144    631.39065    6709.0511     1270.039    468923.22    164.77492    164.51615    169.39929 
     -0.2915   0.39539098   0.39082601    29150    304.06308    86.977832    86.549563    62.316123 0.0096545085 -0.0090054051  -0.39106663  0.013395743  0.013026641 -0.006338227   0.39321259    14921.311    -955223.6   -940302.29    114185.33   -340358.52   -735761.06   -961934.25    2511.0731     3549.217     650.3536    6710.6437    1284.3738    469109.13    165.30947    165.11303    170.02879 
      -0.292   0.39580792   0.39121455    29200    302.04996     87.00382    86.573742    62.272146  0.013148605 -0.010969456   -0.4142226 -0.011436319 -0.0037189848  0.024061937   0.41843907    14822.521   -955166.89   -940344.37    114532.81   -340551.59    -735792.6   -961811.37    2471.0173    3528.7052    644.75963    6644.4821    1355.5176    469049.14     165.7223    165.49073    170.37014 
     -0.2925   0.39591661   0.39189194    29250    300.28458    87.010595    86.615895    62.228168  0.022845763 -0.026940661  -0.39905692 0.0061809602  0.020079642 -0.002579172   0.40102329    14735.888   -955113.03   -940377.14    114594.42   -340596.54   -735804.79   -961806.91    2490.5305    3523.4612    679.89122    6693.8829    1326.2664    468982.62    166.14523    165.85306    170.66453 
      -0.293   0.39559397   0.39306124    29300    300.42742    86.990485    86.688659    62.184191 0.0044729392  -0.01556133   -0.4175204 -0.00058693906 -0.00031726591 0.0085527844   0.41260903    14742.898   -955139.19    -940396.3    114500.14   -340508.59   -735787.64   -961796.09    2464.3883    3554.2507    638.25294     6656.892    1410.0133    468936.48    166.55492    166.21417     171.0861 
     -0.2935    0.3950606   0.39428656    29350    298.71101    86.957239    86.764909    62.140213 -0.0068817214  0.017461076  -0.44349825  -0.01360937   0.03188849  0.016018845   0.45412676    14658.668    -955056.8   -940398.13    114688.71   -340626.51   -735777.65   -961715.46    2433.9954    3562.3881    662.27132    6658.6548    1424.1924    468837.77    166.87314    166.54806    171.49316 
      -0.294   0.39477938    0.3951197    29400    300.07787    86.939709    86.816754    62.096236 -0.0059420972  0.011477859  -0.42241764 -0.020893162 0.0056104954  0.017041192    0.4281186    14725.744   -955092.17   -940366.42    114562.85   -340523.51   -735773.16   -961733.83    2465.8786    3532.0418     643.7384    6641.6588    1371.4348    468691.42    167.14045    166.86318    171.76401 
     -0.2945   0.39474975   0.39567623    29450    299.20532    86.937863    86.851387    62.052258 0.0069168706 -0.025210354  -0.42300279  0.026284375  0.017422144 -0.010590355   0.41877275    14682.925   -955031.25   -940348.32    114706.28   -340612.27   -735809.61   -961715.61    2470.5453    3574.9659    638.84581     6684.357    1451.7519    468536.37     167.4704     167.1461    172.03914 
      -0.295   0.39475559   0.39645555    29500    300.38468    86.938226    86.899883    62.008281 -0.017407006 -0.0074456448  -0.43603591 -0.013339519  0.022833841 0.0077750122   0.42637874      14740.8   -955078.97   -940338.17    114691.62   -340591.72   -735839.89   -961739.99    2424.4839    3594.5642    641.97479    6661.0229    1516.2055    468467.71    167.91891    167.48237    172.44569 
     -0.2955   0.39478584   0.39746703    29550     299.0704    86.940112    86.962826    61.964303 0.0059764422  0.004039669  -0.39930647 0.00049854418  0.020032666 0.0075687023   0.40601672    14676.305   -954998.56   -940322.26    114596.61   -340410.23   -735842.11   -961655.73    2484.5528    3533.7166    638.89543    6657.1648    1280.6657     468484.7    168.38531    167.93339    172.82419 
      -0.296   0.39481443   0.39871855    29600    298.25719    86.941894    87.040707    61.920326  0.027473634 -0.041858118  -0.42593665  0.029997582  0.018398413 -0.003591395   0.42744101    14636.397   -954929.37   -940292.97    114441.66    -340292.7    -735789.7   -961640.74    2480.2712    3606.6262    624.47649    6711.3739    1448.5439    468581.07    168.82495    168.50857    173.29931 
     -0.2965   0.39456166   0.40016559    29650    300.19911    86.926138    87.130754    61.876348  0.006374646 -0.00096463699  -0.41471269  0.022640833  0.010316753 0.0026073373   0.41970877    14731.693   -954990.11   -940258.42    114554.25   -340463.62   -735795.34   -961704.72    2504.1826    3537.2322    673.18942    6714.6042    1346.5011    468647.75    169.22786    169.05392    173.91438 
      -0.297   0.39443412   0.40150922    29700    299.82088    86.918188    87.214367    61.832371 -0.040346751  0.012032413  -0.43147088 -0.0064916324  0.026845994 -0.0055465965   0.42259822    14713.133   -954943.72   -940230.59    114778.34   -340604.17   -735812.44   -961638.27    2459.2619    3588.9206    646.36194    6694.5444    1512.5758     468721.2    169.70473    169.59573    174.39199 
     -0.2975   0.39492796   0.40253012    29750    300.38864    86.948971    87.277897    61.788393  -0.02446748  0.012332885  -0.41544055 -0.00079028469 0.0095798905 0.0028830007   0.41097967    14740.995   -954966.56   -940225.56    114747.41   -340632.46   -735811.69   -961696.74    2484.5955    3591.3592     654.2306    6730.1853    1406.6129    468895.02    170.33136    170.20995    174.90766 
      -0.298   0.39587433   0.40319003    29800    300.02159     87.00796    87.318962    61.744416 -0.013739183 -0.017774228  -0.41074185 0.0018290524 -0.008006686 0.0017591737   0.39526841    14722.982   -954956.01   -940233.02    114411.43   -340246.11    -735822.9   -961657.58    2475.1899    3563.6879    662.69717     6701.575    1454.9067    469099.79    170.98225    170.86319    175.54393 
     -0.2985   0.39667542   0.40378916    29850    299.26145    87.057894    87.356245    61.700438  0.038531866  0.017504798  -0.39343737 0.0087155483 0.0030041931    0.0190592   0.42343976     14685.68    -954917.7   -940232.02    114164.65   -339914.61   -735791.35    -961541.3    2466.2803    3524.5646     632.7634    6623.6084     1109.962    469234.96    171.53963    171.50367    176.06676 
      -0.299   0.39714962   0.40411304    29900    298.54299    87.087452      87.3764    61.656461 -0.013225841  0.017828761  -0.37943818  0.035998596  0.013075624 0.0061037825   0.38853678    14650.423   -954863.26   -940212.83    114195.64   -339990.68   -735785.64   -961580.68    2413.4617    3622.9363    681.02568    6717.4237    1233.1121    469167.93    171.94982     171.9818    176.37543 
     -0.2995   0.39754332   0.40408519    29950    301.70503    87.111992    87.374667    61.612483 -0.0099631853 -0.0081863211  -0.39995658  0.023121994 0.0088608891 0.0077806356   0.39346158    14805.594   -954999.65   -940194.06     114556.7   -340430.85   -735778.09   -961652.23    2424.1933    3580.3074    648.08483    6652.5855    1375.4621     468956.1     172.2863    172.28873    176.80014 
        -0.3   0.39810333   0.40428374    30000    299.02591    87.146899    87.387022    61.568506 -0.022426646 -0.043241034  -0.41837026 0.0083443825  0.036669622  0.020106134    0.3929617    14674.121   -954870.06   -940195.94    115042.07   -340841.48   -735793.59      -961593    2455.7105    3643.6236    623.60978    6722.9439     1592.361    468875.44    172.71061    172.68488    177.25443 
Loop time of 3097.83 on 6 procs for 30000 steps with 16464 atoms

Performance: 0.837 ns/day, 28.684 hours/ns, 9.684 timesteps/s
135.7% CPU use with 1 MPI tasks x 6 OpenMP threads

MPI task timing breakdown:
Section |  min time  |  avg time  |  max time  |%varavg| %total
---------------------------------------------------------------
Pair    | 1273.9     | 1273.9     | 1273.9     |   0.0 | 41.12
Bond    | 67.152     | 67.152     | 67.152     |   0.0 |  2.17
Kspace  | 557.39     | 557.39     | 557.39     |   0.0 | 17.99
Neigh   | 96.273     | 96.273     | 96.273     |   0.0 |  3.11
Comm    | 6.1479     | 6.1479     | 6.1479     |   0.0 |  0.20
Output  | 9.4266     | 9.4266     | 9.4266     |   0.0 |  0.30
Modify  | 1083.8     | 1083.8     | 1083.8     |   0.0 | 34.98
Other   |            | 3.808      |            |       |  0.12

Nlocal:        16464.0 ave       16464 max       16464 min
Histogram: 1 0 0 0 0 0 0 0 0 0
Nghost:        21057.0 ave       21057 max       21057 min
Histogram: 1 0 0 0 0 0 0 0 0 0
Neighs:    1.62776e+06 ave 1.62776e+06 max 1.62776e+06 min
Histogram: 1 0 0 0 0 0 0 0 0 0
FullNghs:  4.17895e+06 ave 4.17895e+06 max 4.17895e+06 min
Histogram: 1 0 0 0 0 0 0 0 0 0

Total # of neighbors = 4178952
Ave neighs/atom = 253.82362
Ave special neighs/atom = 4.6666667
Neighbor list builds = 1235
Dangerous builds = 0

unfix 3
unfix 4

print "all done!"
all done!
Total wall time: 0:51:51
