LAMMPS (29 Oct 2020)
  using 6 OpenMP thread(s) per MPI task
#Initialization----------
units       real
boundary p p p
atom_style  full
pair_style   hybrid lj/charmm/coul/long 9.9 10. buck/coul/long 9.9 10.
bond_style      harmonic
angle_style     harmonic
special_bonds   amber
dihedral_style  charmm
kspace_style pppm 1.0e-4
kspace_modify diff ad

#Reading data file(with bonded interactions) and potential file(non bonded)------------
read_data    NPT777_aniso.data
Reading data file ...
  orthogonal box = (-0.89082456 0.35542204 1.9517850) to (61.441406 62.584315 89.906793)
  1 by 1 by 1 MPI processor grid
  reading atoms ...
  16464 atoms
  reading velocities ...
  16464 velocities
  scanning bonds ...
  4 = max bonds/atom
  scanning angles ...
  6 = max angles/atom
  scanning dihedrals ...
  9 = max dihedrals/atom
  reading bonds ...
  9604 bonds
  reading angles ...
  16464 angles
  reading dihedrals ...
  12348 dihedrals
Finding 1-2 1-3 1-4 neighbors ...
  special bond factors lj:    0.0      0.0      0.5     
  special bond factors coul:  0.0      0.0      0.8333333333333334
     4 = max # of 1-2 neighbors
     3 = max # of 1-3 neighbors
     6 = max # of 1-4 neighbors
     7 = max # of special neighbors
  special bonds CPU = 0.008 seconds
  read_data CPU = 0.159 seconds
#read_restart restart.txt
include dlpoly2lammps.nonbonding
 pair_coeff           1           3 lj/charmm/coul/long   1.4000000000000000E-002   2.2645400000000002
 pair_coeff           2           3 lj/charmm/coul/long   5.7400000000000000E-002   2.7500000000000000
 pair_coeff           3           3 lj/charmm/coul/long   1.5699999999999999E-002   1.0690999999999999
 pair_coeff           3           4 lj/charmm/coul/long   5.1700000000000003E-002   2.1595000000000000
 pair_coeff           4           4 lj/charmm/coul/long  0.17000000000000001        3.2500000000000000
 pair_coeff           3           5 lj/charmm/coul/long   4.1399999999999999E-002   2.2343999999999999
 pair_coeff           4           5 lj/charmm/coul/long  0.13639999999999999        3.3248000000000002
 pair_coeff           5           5 lj/charmm/coul/long  0.10940000000000000        3.3997000000000002
 pair_coeff           1           6 lj/charmm/coul/long   1.4000000000000000E-002   2.7099899999999999
 pair_coeff           2           6 lj/charmm/coul/long   5.7400000000000000E-002   3.1000000000000001
 pair_coeff           3           6 lj/charmm/coul/long   1.5699999999999999E-002   1.5145000000000000
 pair_coeff           4           6 lj/charmm/coul/long   5.1700000000000003E-002   2.6050000000000000
 pair_coeff           5           6 lj/charmm/coul/long   4.1399999999999999E-002   2.6798000000000002
 pair_coeff           6           6 lj/charmm/coul/long   1.5699999999999999E-002   1.9600000000000000
 pair_coeff           1           1 buck/coul/long   70359906.629702002       0.13125800000000001        0.0000000000000000
 pair_coeff           1           2 buck/coul/long   103496.13301000001       0.32173700000000000        0.0000000000000000
 pair_coeff           2           2 buck/coul/long   22793.338582000000       0.48221700000000001        696.94954199999995
 pair_coeff           1           4 buck/coul/long   32690390.937995002       0.15094700000000000        0.0000000000000000
 pair_coeff           2           4 buck/coul/long   112936.71421300001       0.34242600000000001        0.0000000000000000
 pair_coeff           1           5 buck/coul/long   32690390.937995002       0.15094700000000000        0.0000000000000000
 pair_coeff           2           5 buck/coul/long   112936.71421300001       0.34242600000000001        0.0000000000000000

group lead type 1
1372 atoms in group lead
group iodine type 2
4116 atoms in group iodine
group methylammonium molecule <> 5489 6860
10976 atoms in group methylammonium


timestep 1

############ ---------- Define Settings ------------------------------------------#####################
compute csym all centro/atom fcc
compute eng all pe/atom
compute stress all stress/atom NULL virial
compute eatoms all reduce sum c_eng
compute stress1 all reduce sum c_stress[1]
compute stress2 all reduce sum c_stress[2]
compute stress3 all reduce sum c_stress[3]
compute stress4 all reduce sum c_stress[4]
compute stress5 all reduce sum c_stress[5]
compute stress6 all reduce sum c_stress[6]

reset_timestep 0
timestep 1

##### Store cell length for strain calculations
variable tmpx equal "lx"
variable L0x equal ${tmpx}
variable L0x equal 62.3322301271326
print "Initial Length in x, L0x: ${L0x}"
Initial Length in x, L0x: 62.3322301271326

variable tmpy equal "ly"
variable L0y equal ${tmpy}
variable L0y equal 62.2288929287961
print "Initial Length in y, L0y: ${L0y}"
Initial Length in y, L0y: 62.2288929287961

variable tmpz equal "lz"
variable L0z equal ${tmpz}
variable L0z equal 87.9550080823369
print "Initial Length in z, L0z: ${L0z}"
Initial Length in z, L0z: 87.9550080823369

thermo 50

#######------Deformation------######
fix 3 all npt temp 300 300 100 x 1 1 1000 z 1 1 1000 drag 1
variable srate equal 1.0e10
variable srate1 equal "-v_srate / 1.0e15"
fix 4 all deform 1 y erate ${srate1} units box remap x
fix 4 all deform 1 y erate -1e-05 units box remap x

compute msdpb lead msd
compute msdi iodine msd
compute msdma methylammonium msd

compute myRDF all rdf 20 1 1 2 2 1 2 1 4 1 5 2 4 2 5 4 5
fix 2 all ave/time 1 1000 1000 c_myRDF[*] file stress.rdf mode vector

########-----output strain and stress info to file----#######
variable strainx equal "(lx - v_L0x)/v_L0x"
variable strainy equal "(ly - v_L0y)/v_L0y"
variable strainz equal "(lz - v_L0z)/v_L0z"
variable p1 equal "-pxx *1.01325/10000"
variable p2 equal "-pyy *1.01325/10000"
variable p3 equal "-pzz *1.01325/10000"
variable p4 equal "-pxy *1.01325/10000"
variable p5 equal "-pyz *1.01325/10000"
variable p6 equal "-pxz *1.01325/10000"
variable vonmises equal "sqrt(((v_p1-v_p2)^2+(v_p2-v_p3)^2+(v_p1-v_p3)^2+6*(v_p4^2+v_p5^2+v_p6^2))/2)"


dump 6 all custom 1000 deform.dump id element type mass xs ys zs c_csym c_eng q fx fy fz c_stress[1] c_stress[2] c_stress[3] c_stress[4] c_stress[5] c_stress[6]
dump_modify 6 element Pb I H N C H
thermo_style custom v_strainy v_strainz v_strainx step temp lx ly lz v_p1 v_p2 v_p3 v_p4 v_p5 v_p6 v_vonmises ke pe etotal evdwl ecoul elong epair ebond eangle edihed emol press vol c_msdpb[4] c_msdi[4] c_msdma[4]

run	30000
PPPM initialization ...
  using 12-bit tables for long-range coulomb (../kspace.cpp:328)
  G vector (1/distance) = 0.27077963
  grid = 40 40 60
  stencil order = 5
  estimated absolute RMS force accuracy = 0.037815386
  estimated relative force accuracy = 0.00011387991
  using double precision KISS FFT
  3d grid and FFT values/proc = 148003 96000
Neighbor list info ...
  update every 1 steps, delay 10 steps, check yes
  max neighbors/atom: 2000, page size: 100000
  master list distance cutoff = 12
  ghost atom cutoff = 12
  binsize = 6, bins = 11 11 15
  5 neighbor lists, perpetual/occasional/extra = 3 2 0
  (1) pair lj/charmm/coul/long, perpetual, skip from (5)
      attributes: half, newton on
      pair build: skip
      stencil: none
      bin: none
  (2) pair buck/coul/long, perpetual, skip from (5)
      attributes: half, newton on
      pair build: skip
      stencil: none
      bin: none
  (3) compute centro/atom, occasional
      attributes: full, newton on
      pair build: full/bin
      stencil: full/bin/3d
      bin: standard
  (4) compute rdf, occasional, copy from (5)
      attributes: half, newton on
      pair build: copy
      stencil: none
      bin: none
  (5) neighbor class addition, perpetual
      attributes: half, newton on
      pair build: half/bin/newton
      stencil: half/bin/3d/newton
      bin: standard
WARNING: Inconsistent image flags (../domain.cpp:812)
Per MPI rank memory allocation (min/avg/max) = 209.8 | 209.8 | 209.8 Mbytes
v_strainy v_strainz v_strainx Step Temp Lx Ly Lz v_p1 v_p2 v_p3 v_p4 v_p5 v_p6 v_vonmises KinEng PotEng TotEng E_vdwl E_coul E_long E_pair E_bond E_angle E_dihed E_mol Press Volume c_msdpb[4] c_msdi[4] c_msdma[4] 
4.5672851e-16 -4.8470877e-16 -1.1399283e-16        0    300.18499     62.33223    62.228893    87.955008 -0.017292815 -0.039250607 -0.017757825 -0.0035435147 -0.021960714  0.017474288  0.053597489    14731.001   -962944.29   -948213.29    106265.56   -338438.27   -738443.17   -970615.88    2933.6517    4177.6395    560.30762    7671.5989     244.4321    341165.66            0            0            0 
     -0.0005 9.0800745e-05 5.3379413e-05       50    299.43115    62.335557    62.197778    87.962994 -0.033400557 -0.0055202617 -0.0024279845 -0.0030380323 -0.0023653074 0.0013363822  0.030379555    14694.008    -962924.3   -948230.29    106408.98   -338420.66   -738436.07   -970447.74     2973.111    3992.7513    557.58326    7523.4455    136.02699    341044.25 0.0092827379  0.015325772   0.25237628 
      -0.001 0.00034644781 0.00028887022      100     299.4118    62.350236    62.166664     87.98548 -0.0077346157 -0.033900547  0.014248663 -0.010270612 -0.010865425 -0.018534839  0.058688866    14693.058   -962936.31   -948243.25     106228.8   -338305.56   -738444.86   -970521.61    2900.8726    4129.0727    555.36305    7585.3083     90.09458    341041.06  0.033341088  0.053800412   0.63119587 
     -0.0015 0.00057505551 0.00051356603      150    298.77798    62.364242     62.13555    88.005587  0.033931052 -0.023183699 -0.009355674 -0.0077332024 -0.031520221  0.018195175  0.082563299    14661.955   -962899.55   -948237.59    106217.64   -338272.42   -738431.66   -970486.44    2910.3697    4144.2853     532.2414    7586.8964   -4.5782693    341024.86  0.064147169  0.099831999   0.97520571 
      -0.002 0.00073017268 0.00058233839      200     302.2219    62.368529    62.104435     88.01923  0.034676351  -0.05058945 -0.020657791  -0.01705506 -0.0020161327  0.014342178   0.08435596    14830.958   -963076.31   -948245.35    106313.89    -338438.9   -738438.02   -970563.04    2916.9854    4029.2852    540.45724    7486.7278    120.30887    340930.36  0.093834448   0.13986983     1.160379 
     -0.0025 0.00097725997 0.00041417393      250    301.07308    62.358047    62.073321    88.040963 -0.00097341635 -0.035570614  0.018650536 -0.00013055055  0.019532188  -0.02186505  0.069568749    14774.582   -963045.94   -948271.35    106321.52   -338426.36   -738445.43   -970550.27     2900.864    4055.6031    547.86566    7504.3328    58.865022    340786.41   0.11706723   0.16903046    1.2990961 
      -0.003 0.0013127393 4.2843217e-05      300    299.57863    62.334901    62.042206     88.07047 -0.0073130031 -0.089625157 -0.043543268  -0.01393045 -0.019875925 -0.0061488445  0.083585202    14701.245   -962997.24   -948295.99    106551.22   -338622.59   -738445.97   -970517.34    2844.0745    4131.1259    544.90661     7520.107    462.14797    340603.27   0.13275222   0.18997158    1.3948873 
     -0.0035 0.0017384985 -0.00032782184      350    298.43248    62.311796    62.011092    88.107918 0.0099940442   -0.1060069 -0.010750667  0.023220407  0.015014802 -0.014202684    0.1199133        14645   -962946.22   -948301.22    106867.42   -338948.49   -738447.57   -970528.63    2874.5296    4148.6925    559.19434    7582.4164    351.22469    340450.98   0.14239726   0.20719076    1.4744659 
      -0.004 0.0022819089 -0.00046087189      400    302.88828    62.303503    61.979977    88.155713 -0.036835416  -0.10429655 -0.002916082 -0.0096865073  0.028228318  0.012010592   0.10533055     14863.66   -963169.33   -948305.67    106824.81   -338958.24   -738459.26   -970592.69    2833.6813    4043.8558    545.81933    7423.3564    473.88125    340419.43   0.14819475   0.22390814    1.5393438 
     -0.0045 0.0028768047 -0.00039118601      450    300.16251    62.307847    61.948863    88.208037 0.0064694241 -0.099980018  -0.01607643 -0.0056596946 -0.0063359065 0.0071398326  0.099041733    14729.897    -963049.2    -948319.3     106724.2   -338945.91   -738444.98   -970666.69    2919.5843     4164.321    533.58694    7617.4922    360.51328    340474.23   0.15317965   0.24196733    1.6145961 
      -0.005 0.0033663844 -0.0004117754      500    300.53396    62.306563    61.917748    88.251098  0.025975432  -0.13513579  0.018790891 0.0062510484 0.0040230458  0.022671409   0.16296838    14748.126   -963096.91   -948348.79    106704.14   -338823.06   -738439.55   -970558.47    2914.9335    4016.3631    530.25936     7461.556    297.29244    340462.33   0.15896514   0.25988158    1.7167109 
     -0.0055 0.0037577953 -0.00059605576      550    299.73713    62.295077    61.886634    88.285525 -0.022362813  -0.10729368 -0.010688963  0.021614502  0.017997496 -0.00066794819   0.10351633    14709.023   -963066.45   -948357.42    106817.02   -338917.24   -738444.38    -970544.6    2924.1331    4008.4879    545.53374    7478.1548    461.70066    340361.23    0.1654524   0.27578951    1.8401969 
      -0.006 0.0041523004 -0.00070002854      600    298.42174    62.288596     61.85552    88.320224 -0.011173305 -0.093986294 -0.015826123 -0.026533189 -0.012483429  0.019244477   0.10092034    14644.473   -962980.28    -948335.8    106858.39   -338870.98   -738436.86   -970449.46    2891.0129    4026.1015    552.06457     7469.179    398.01208    340288.41   0.17325382   0.28937839    1.9642192 
     -0.0065 0.0045165039 -0.00069062567      650    300.16359    62.289182    61.824405    88.352257 -0.0079042332  -0.14273028  0.021354415  0.011118984 -0.0035285854 0.0003052684   0.15292968     14729.95   -963037.73   -948307.78    106631.32   -338788.23   -738446.42   -970603.33    2879.8329    4142.6089    543.15627    7565.5981    425.29845     340243.8   0.18170351   0.30018872    2.0733421 
      -0.007 0.0046931994 -0.00073429463      700    301.31873     62.28646    61.793291    88.367798  0.013231197   -0.1566763  0.030233343  0.013872431 -0.0069991062  0.010445886   0.18192874    14786.637   -963094.36   -948307.73    106849.93   -338958.78   -738451.55    -970560.4    2869.9047    4064.4266     531.7084    7466.0398    372.43774    340117.52   0.18921815   0.30853713    2.1663718 
     -0.0075 0.0047737128 -0.00083694178      750    299.66501    62.280062    61.762176     88.37488 -0.016630486  -0.17068476 -0.036542586  -0.03154336   0.01861326 -0.019483945   0.16194089    14705.484   -963020.68    -948315.2    107155.76      -339232   -738446.03   -970522.27    2875.7029    4077.7461    548.14255    7501.5915    736.43502    339938.58   0.19484084   0.31457922    2.2460404 
      -0.008 0.0049429726 -0.00086054072      800    299.35769    62.278591    61.731062    88.389767 -0.00032035201  -0.16455529 -0.0091920875  0.019340464 -0.012958335  0.001544274   0.16500861    14690.403   -963005.47   -948315.07    107212.63   -339309.06   -738434.31   -970530.74    2898.5684    4068.3627    558.33376    7525.2648    572.63829    339816.54   0.19820598   0.31811149    2.3015324 
     -0.0085 0.0052443061 -0.00075751864      850     297.9742    62.285012    61.699947    88.416271 -0.039922316  -0.21538099 0.0037087181 0.0077305356 -0.015127813  0.028778762   0.20903431    14622.511    -962916.6   -948294.09    107208.12   -339305.27    -738443.9   -970541.05     2932.332    4124.7073    567.41645    7624.4557    827.68185    339782.14   0.20040199   0.31993738    2.3593611 
      -0.009 0.0055293527 -0.00053871082      900    299.76169    62.298651    61.668833    88.441342  0.026555462  -0.17388709  0.033059633 -0.031500079 -0.0040343445 -0.0065172327   0.21136757    14710.228   -963003.08   -948292.85    107262.88   -339383.15   -738465.66   -970585.92    2910.9036     4109.096    562.84414    7582.8437    375.92565    339781.48   0.20205299   0.32074417    2.4211438 
     -0.0095 0.0056835937 -0.00022161528      950    301.15744    62.318416    61.637718    88.454909 -0.021805706  -0.25403741 -0.012854605  0.014035031  0.014567115  0.022933174   0.24268447    14778.722   -963080.79   -948302.07    107191.38   -339321.44   -738439.01   -970569.07    2900.9382    4025.7808    561.56807    7488.2871    949.74165     339769.9   0.20270602   0.32026832    2.4779353 
       -0.01 0.0057524667 0.00015269147     1000    299.04105    62.341748    61.606604    88.460966  0.003954996   -0.1958838 -0.0014351636  0.012212229 -0.016077855   0.01790848   0.20266347    14674.864   -962981.22   -948306.36     107370.7   -339448.44   -738438.53   -970516.27    2934.3165    4078.7936    521.93695    7535.0471    636.11799    339748.79   0.20403232    0.3189281    2.5421238 
     -0.0105 0.0058899124 0.00046443184     1050    300.17962    62.361179     61.57549    88.473055   0.02504116  -0.23109204  -0.03081693 -0.002033522 -0.023222178 0.0056169073   0.23694323    14730.737   -963039.47   -948308.73    107445.96   -339515.58   -738452.06   -970521.68    2874.5407    4051.0208     556.6501    7482.2116    779.23452    339729.47   0.20818737   0.31825782    2.6206309 
      -0.011 0.0061131776 0.00062101278     1100    301.15873    62.370939    61.544375    88.492693 0.0090456692  -0.26119136 0.0056770288 -0.0019718583 -0.0050172666 -0.001484051   0.26874311    14778.785   -963080.86   -948302.08    107232.17   -339445.66   -738456.95   -970670.44    2929.4978    4109.4566    550.62404    7589.5784    810.81884    339686.32   0.21351092   0.31993181    2.6797582 
     -0.0115 0.0062332647 0.0004933725     1150    302.35318    62.362983    61.513261    88.503255  0.020587851   -0.2690756 0.00031887541  0.021403239 0.0078386984  0.020291128   0.28502349    14837.401   -963175.98   -948338.58    107267.71   -339476.04   -738459.63   -970667.96    2912.8433    4014.4164      564.717    7491.9767    816.41213     339511.8   0.21673345    0.3237591    2.7214343 
      -0.012 0.0062286153 7.1173626e-05     1200    302.41775    62.336667    61.482146    88.502846  0.004026036  -0.27235204 0.0034692689 0.0020262205 -0.0028687251  0.014823268   0.27735801    14840.569   -963245.29   -948404.72    107742.28   -339992.66   -738468.49   -970718.88    2875.0626    4062.7249    535.79859    7473.5861    871.31093     339195.3   0.21957845   0.32899803    2.7706655 
     -0.0125 0.0063333208 -0.00028204151     1250    297.45651     62.31465    61.451032    88.512055 -0.026673405  -0.30965447 -0.015140773  0.010169767 0.0087798314 -0.010019267   0.29037474    14597.106    -963038.5    -948441.4    108115.53   -340210.07    -738455.5   -970550.04    2897.6714    4079.4387    534.42612    7511.5362     1156.242    338939.17   0.22528143   0.33576168    2.8310576 
      -0.013 0.0067034947 -0.00024430806     1300    299.39263    62.317002    61.419917    88.544614 -0.030443183    -0.315649  -0.02781554  0.029789938 0.0092525412 -0.0092394321   0.29201701    14692.117   -963125.72    -948433.6    108061.87   -340202.52   -738469.23   -970609.88    2827.2635    4098.7157    558.18309    7484.1623    1230.0608    338904.96   0.23303245   0.34412617    2.8838443 
     -0.0135  0.007202919 8.5272008e-05     1350     299.5824    62.337545    61.388803    88.588541  -0.01438677  -0.31645534  0.007773077 0.0025821543 -0.015672739  0.012483363    0.3156813     14701.43   -963115.73    -948414.3    107964.08   -340136.99   -738471.01   -970643.93    2831.2442    4133.1579    563.79741    7528.1995    1062.8145    339013.05   0.24130444   0.35336706    2.9381156 
      -0.014 0.0076793899 0.00053326417     1400    299.46349     62.36547    61.357688    88.630449 0.0089574164   -0.3204865 0.0094613953  -0.02183882  0.007864031  0.022970589   0.33451287    14695.594   -963104.73   -948409.14    107690.07   -339815.94   -738460.41   -970586.28     2883.816    4037.3936     560.3391    7481.5487    993.72545    339153.37   0.25079024   0.36226012    2.9933964 
     -0.0145 0.0079572622 0.00088684842     1450    298.87866    62.387509    61.326574    88.654889  0.019965668  -0.32243433  0.012312477 0.00029917431 -0.00017938079 -0.011083938   0.33918256    14666.895   -963072.21   -948405.32    107627.02   -339762.47   -738441.54   -970576.99    2876.6532     4044.467     583.6554    7504.7756    954.53964    339194.69   0.25935451   0.36964893    3.0450058 
      -0.015 0.0079962284 0.0010502308     1500    299.22811    62.397693     61.29546    88.658316  0.004252174   -0.3310457 -0.0090552435 -0.015226335 -0.010503757  0.034696089   0.33582401    14684.044   -963067.17   -948383.13    107841.48   -339949.99   -738453.38   -970561.88     2842.706    4094.0701    557.93962    7494.7157    1104.8565    339091.05   0.26495847   0.37549115    3.0834197 
     -0.0155 0.0079085114 0.0011378325     1550    300.30837    62.403154    61.264345    88.650601 -0.023896809  -0.35909495  0.013053417 0.0082842552 -0.018408702 -0.027596923    0.3600223    14737.056   -963100.84   -948363.79    108149.59   -340230.34   -738455.55   -970536.31    2912.9335    3986.3727      536.159    7435.4652    1217.0025    338919.08   0.26928551   0.38001158    3.1346401 
      -0.016 0.0079594691 0.0013555917     1600    298.38068    62.416727    61.233231    88.655083 -0.0046798375  -0.38362923 -0.046375145  0.025071359 -0.016183711 -0.0061986157    0.3637684    14642.458    -962978.1   -948335.64    108380.13   -340412.34   -738454.47   -970486.67    2921.9627    4048.0165    538.59706    7508.5763    1429.9999    338837.76   0.27535513   0.38577501    3.1626604 
     -0.0165 0.0083619981 0.0016328568     1650    299.40247     62.43401    61.202116    88.690488  0.013713141  -0.36135914 -0.016786641 0.0095257961  0.028225236 -0.002075281   0.36447903      14692.6   -962995.87   -948303.27    108348.08      -340388   -738455.63   -970495.55    2898.7525    4036.4288     564.5044    7499.6857    1198.8902    338894.65   0.28502739   0.39615502    3.1669336 
      -0.017 0.0090210695 0.0017910877     1700    301.60784    62.443873    61.171002    88.748456  -0.02110967  -0.38217287 -0.019376747 -0.0039506839 0.00073980137 -0.0057224929   0.36213539    14800.824   -963082.81   -948281.98    108141.24   -340240.88   -738469.04   -970568.68    2904.8473    4042.9044    538.11775    7485.8695     1390.441    338997.29    0.2976654   0.41048077    3.1888049 
     -0.0175 0.0096017069 0.0018409789     1750    302.16415    62.446982    61.139887    88.799526  0.050381559   -0.3920822  0.064289212  0.025372774 -0.028734478  0.021741748   0.45601281    14828.124   -963135.05   -948306.93    108009.04   -340134.06   -738451.14   -970576.16    2817.9616    4065.9555    557.18651    7441.1036    912.61263    339036.72   0.31059037   0.42461368    3.2344071 
      -0.018 0.0098308572 0.0017551489     1800    300.60621    62.441632    61.108773    88.819681 0.00084805279  -0.40682807 -0.004290278 0.0087175003 -0.016820944 -0.028448625   0.40943404    14751.672   -963076.76   -948325.09    108093.51   -340213.21   -738465.84   -970585.54    2856.0304     4099.258    553.48432    7508.7727    1349.6843    338912.06   0.31949431   0.43478954    3.2738448 
     -0.0185 0.0098280288  0.001429292     1850    301.67376    62.421321    61.077658    88.819432  0.034351571   -0.4377219  -0.01959168 -0.0092978799 -0.0025742481 -0.0042046113   0.44791777    14804.059   -963162.42   -948358.36    108376.03   -340460.46   -738478.97    -970563.4    2870.8149     3987.024    543.14585    7400.9847    1391.4368    338628.36   0.32467047   0.44056689    3.3079647 
      -0.019 0.0099454022 0.00080640156     1900    302.28234    62.382495    61.046544    88.829756 -0.0094669085   -0.4300056 -0.011486624 -0.012453793 0.0028693181 0.0078967186   0.42033864    14833.924    -963215.6   -948381.68    108678.67   -340816.03   -738476.87   -970614.23    2815.5885     4035.842    547.20421    7398.6347    1483.5402    338284.65   0.33109753    0.4466858    3.3434451 
     -0.0195   0.01024962 0.00015414101     1950    299.98643    62.341838     61.01543    88.856514 -0.012997573  -0.48257917 0.0077093994  0.030673131 -0.0094422348 -0.00020771695   0.48347636    14721.257    -963119.6   -948398.34    109019.09   -341185.72   -738465.65   -970632.29    2865.2976    4093.1783    554.20801    7512.6839    1604.9588    337993.65    0.3406306     0.456385    3.3804608 
       -0.02  0.010789498 -0.00014764884     2000    301.08457    62.323027    60.984315    88.903998 -0.082503485  -0.49253601 -0.043790185  0.011365106 0.0064010862 -0.005065444   0.43137745    14775.146   -963197.24   -948422.09    109151.57   -341283.36   -738478.43   -970610.22    2810.0344    4032.5757    570.36652    7412.9766    2035.7914    337899.84   0.35393768   0.47129222    3.4102192 
     -0.0205  0.011538365 9.1599566e-06     2050    297.26461    62.332801    60.953201    88.969865  0.013164654  -0.43433083 -0.0026284005 -0.0045982801 -0.014340925 0.0055550943   0.44068958    14587.689   -963008.15   -948420.46    108952.84    -341077.4   -738467.74    -970592.3    2909.8397    4118.8259    555.48728    7584.1528    1394.1758    338030.66    0.3707183   0.49079359    3.4624506 
      -0.021  0.012350155 0.00048041335     2100    300.17896    62.362175    60.922086    89.041266 -0.018116297  -0.47863935 0.0019212317  0.021157916 -0.0025457913 -0.017976679   0.47333141    14730.705    -963155.3   -948424.59    108782.31   -340871.98   -738469.86   -970559.54    2863.7106    4006.7577    533.77236    7404.2406    1627.8786    338288.59   0.39107106   0.51261422    3.5048357 
     -0.0215  0.013035707 0.0010518421     2150    297.08921    62.397794    60.890972    89.101564  -0.03828705  -0.50431071  0.020535507 0.0054205224 -0.020983548 0.0027967222   0.49948312    14579.082   -962988.39   -948409.31    108772.17   -340777.49   -738469.29   -970474.62    2898.3373    4043.6721     544.2119    7486.2213    1717.4513    338538.03   0.41300124   0.53176453    3.5636301 
      -0.022  0.013480671 0.0015324772     2200    299.17847    62.427753    60.859857    89.140701  0.066966139  -0.52332163  0.028155712 -0.0069264272 -0.0048462414 0.0022098682   0.57207134    14681.608   -963039.51   -948357.91    108562.49   -340586.64   -738467.89   -970492.03    2898.3731    4005.3606    548.78598    7452.5197    1408.6677     338676.2   0.43065064   0.54528154    3.6048756 
     -0.0225  0.013520176 0.0017037157     2250    300.12842    62.438427    60.828743    89.144175  0.028243956  -0.43662473   0.03427405 0.00093772311 -0.015787012 -0.0099087539   0.46902808    14728.225   -963046.26   -948318.03    108693.28   -340672.48   -738463.98   -970443.18    2850.8961    4028.4637    517.56711    7396.9269    1230.7154    338574.12   0.43675612    0.5519604    3.6163129 
      -0.023  0.013300231 0.0016648771     2300    300.63012    62.436006    60.797628     89.12483 -0.0078971845  -0.58464425 -0.0062591005 -0.0029924589 0.0038357408  0.010003608   0.57788913    14752.845   -963041.42   -948288.58    108915.64   -340934.09   -738474.57   -970493.02    2914.7614    4005.5611    531.27605    7451.5986    1969.9006    338314.38   0.43638317   0.55430046    3.6293048 
     -0.0235  0.012973736 0.0015177268     2350    300.38406    62.426833    60.766514    89.096113 -0.014162651   -0.5622378   0.02590623 0.0034210233 -0.022789611 -0.011879777   0.57093716     14740.77   -963017.19   -948276.42    109187.88   -341167.07   -738460.48   -970439.68      2858.88    4027.5795    536.03198    7422.4915    1810.9852    337982.63   0.43614242   0.55364867    3.6555372 
      -0.024  0.012735768 0.0013639239     2400    302.55007    62.417247    60.735399    89.075183  0.021314643  -0.51344424 -0.0075011444 0.00095717985 0.0014759647 0.0016020862   0.52096535    14847.062   -963106.38   -948259.32    109346.39   -341427.89   -738470.77   -970552.27    2838.1531    4057.3552    550.37632    7445.8846    1643.6573    337678.35   0.43900125   0.55428668    3.6788399 
     -0.0245  0.012663465 0.0013343197     2450    301.89186    62.415401    60.704285    89.068823 -0.063556159  -0.55416399  -0.03048867 -0.010002746  -0.02618914 -0.030448338   0.51298319    14814.762   -963095.19   -948280.43    109482.72   -341606.92    -738472.7    -970596.9    2860.0709    4077.7602    563.87755    7501.7087    2132.4412    337471.29    0.4450088   0.55944664    3.6929484 
      -0.025  0.012801822 0.0016183308     2500    303.90734    62.433104    60.673171    89.080992 -0.0070724838  -0.62640135 -0.013812965 0.00081192801  0.033649671  0.029297544   0.62081642    14913.668   -963244.91   -948331.24    109509.38    -341591.3   -738482.57   -970564.49    2786.7563     3986.831     545.9921    7319.5795     2129.408    337440.08   0.45527563   0.57003299    3.7122959 
     -0.0255  0.013199777 0.0020626379     2550    298.82199    62.460799    60.642056    89.115995  0.024686942  -0.54947829 -0.035781304 0.00068419268 0.0089079554 -0.010997659   0.54699695    14664.114   -963032.17   -948368.05    109425.33   -341473.08   -738458.89   -970506.63    2895.0386    4022.6254    556.80342    7474.4675    1844.1406    337549.22   0.47166183   0.58651242    3.7246416 
      -0.026  0.013734971 0.0024813286     2600    298.95877    62.486897    60.610942    89.163068 -0.052385575  -0.54768306  0.038045322  0.011744605 -0.033545279 -0.0029698866   0.54963958    14670.827   -963057.24   -948386.41    109232.57    -341266.3   -738465.24   -970498.96    2877.6955    3995.6884    568.34219    7441.7261     1848.913    337695.28   0.49073572   0.60608426    3.7597614 
     -0.0265  0.014208798 0.0027725469     2650    299.89963    62.505049    60.579827    89.204743  0.063096817  -0.63374337 -0.041673242 0.0042935846 -0.011475746  0.013885034   0.65160095    14716.997   -963090.92   -948373.92    109150.88   -341195.09   -738460.27   -970504.48    2850.9682    4012.0676    550.52614     7413.562    2014.3755    337777.78   0.50725891   0.62568141    3.7876809 
      -0.027  0.014657533 0.0027054596     2700    297.27465    62.500867    60.548713    89.244212  0.077749791  -0.53155281 -0.019105972  -0.02819593  0.006715277 -0.036259989   0.57278348    14588.182   -962941.58    -948353.4    109210.89   -341216.25   -738449.38   -970454.74     2907.663    4040.3252    565.17084     7513.159    1555.7496    337731.07   0.52210963   0.64533396    3.8136667 
     -0.0275  0.015164179 0.0023253615     2750    302.13253    62.477175    60.517598    89.288774 -0.015802916  -0.62505536 -0.00080523926 0.0051084277 -0.020518686 -0.0043583818   0.61802036    14826.573   -963146.74   -948320.17    109424.56   -341435.58   -738472.23   -970483.25    2843.5494    3964.4323    528.52739    7336.5091    2110.9089    337598.05   0.53831541   0.66460579    3.8381837 
      -0.028  0.015755638 0.0019967515     2800    299.20703    62.456692    60.486484    89.340795 -0.060760326  -0.62495036  0.026761124    0.0193755 -0.0083628769 -0.0037943851   0.61378202    14683.009   -962970.54   -948287.53     109501.5    -341453.5   -738435.75   -970387.74    2840.6839    4035.1566     541.3653    7417.2058    2167.7755    337510.38   0.55747474   0.68492833    3.8639879 
     -0.0285  0.016304332 0.0018065591     2850    302.12745    62.444837    60.455369    89.389056  0.058338507  -0.63283703 -0.020117655 -0.013987876  0.018562961  0.008003945    0.6568599    14826.323   -963094.69   -948268.36    109377.84   -341461.07   -738481.41   -970564.64    2878.6975     4015.154    576.10558    7469.9571    1956.1351    337454.92   0.57749449   0.70465133    3.8670137 
      -0.029  0.016675322 0.0017048155     2900    300.88533    62.438495    60.424255    89.421686 -0.035296383  -0.58945258 0.0049922361 -0.014235498 -0.013697784 0.0059536096   0.57646823    14765.369   -963065.04   -948299.67    109515.89   -341549.88   -738466.64   -970500.63    2876.2118    4021.7921    537.58704    7435.5909    2038.8411     337370.1   0.59718366   0.71980206     3.886596 
     -0.0295  0.016933354 0.0017746863     2950    300.28115     62.44285    60.393141    89.444381 -0.028521244  -0.70817743  0.020579558  0.012511668 -0.011630826 0.0068898117   0.70621027     14735.72   -963058.98   -948323.26     109720.3   -341718.25   -738475.83   -970473.78    2866.2295    3986.4854    562.08763    7414.8025    2355.8487    337305.48   0.61701645   0.73031675    3.9157042 
       -0.03  0.017108235 0.0019993681     3000    300.53524    62.456855    60.362026    89.459763 -0.017055568  -0.64397218 0.0036939144 -0.0070463779  0.013898571 -0.008345832    0.6382794    14748.189   -963081.97   -948333.78    109757.86   -341764.19   -738474.58   -970480.91    2827.3284    4004.1725    567.43737    7398.9383    2162.4602     337265.3   0.63291609    0.7394052    3.9508811 
     -0.0305  0.017197951 0.0023627078     3050    299.96079    62.479503    60.330912    89.467654  0.010202355  -0.65821944 -0.0099914824 0.0075507164 -0.022982713 0.0013064587   0.65989261    14719.999   -963058.83   -948338.83    109717.25   -341749.06   -738463.92   -970495.73    2893.7718    3977.8393    565.28386     7436.895    2164.6799    337243.43   0.64273954   0.74913765    3.9838824 
      -0.031  0.017276327 0.0027250411     3100    300.14557    62.502088    60.299797    89.474548  0.004098604  -0.65345112 -0.015092992 -0.015017077 -0.0096437046 -0.018650011   0.64970727    14729.066   -963071.28   -948342.22    109657.32   -341740.84   -738446.97   -970530.49    2843.8423    4063.4279    551.93453    7459.2047    2185.8558    337217.33    0.6504884   0.76031468    3.9916082 
     -0.0315   0.01743294 0.0028290109     3150    301.84236    62.508569    60.268683    89.488322  0.038942434  -0.71209666  0.017901945 0.0055727626 -0.033789924  0.032410229   0.74523145    14812.333   -963169.75   -948357.41     109673.1   -341724.31   -738469.94   -970521.14     2884.991    3924.9856    541.42003    7351.3967    2155.6124    337130.17   0.65998289   0.77345325    4.0107121 
      -0.032  0.017614019 0.0025925747     3200    302.47584    62.493831    60.237568    89.504249 0.0035457211  -0.70630659 -0.012463701 -0.011437731 -0.0096694948 0.0064137857   0.70255153     14843.42   -963224.52    -948381.1    109846.65   -341903.76   -738474.51   -970531.61    2874.3111    3887.1419    545.64591    7307.0989    2352.9059    336936.64   0.67065536   0.78729124    4.0243339 
     -0.0325  0.017794506 0.0022054873     3250    301.69331    62.469703    60.206454    89.520124 -0.045962021  -0.68643517 0.0083855978 0.0039112774 -0.039874977  0.013327083   0.67328781    14805.019   -963212.83   -948407.81    109988.64   -342049.92   -738487.42   -970548.71    2863.9659    3922.4193    549.48637    7335.8715     2381.813    336692.29   0.68256137   0.80067292    4.0554811 
      -0.033  0.018068251 0.0019682868     3300    298.51253    62.454918    60.175339    89.544201 0.0026828881  -0.73818847  -0.00776038  0.030604805 -0.0074778581 -0.0026349821   0.73774038    14648.928   -963067.94   -948419.01    110188.52   -342187.08   -738480.12   -970478.67     2873.192    4002.6096    534.93509    7410.7367    2445.1549    336529.13   0.69857159   0.81561698    4.0840558 
     -0.0335  0.018415108 0.0021989242     3350    298.66507    62.469294    60.144225    89.574709  -0.07762962  -0.72445473 -0.021748429 -0.014271821  0.025203569 -0.0022632153   0.67836779    14656.413   -963084.07   -948427.65    110329.98   -342330.17   -738477.64   -970477.83     2866.053    3963.0498     564.6645    7393.7673    2710.1991    336547.17   0.71704533   0.83392268    4.1109434 
      -0.034  0.018767178  0.002976865     3400    300.48775    62.517785    60.113111    89.605675 0.0034651602   -0.7451514 0.0086412142 -0.0039281859 -0.029322598 -0.0053022948   0.75301959    14745.858   -963155.83   -948409.98    110261.59   -342202.89   -738484.25   -970425.55    2819.7586    3930.1706    519.78406    7269.7133    2411.5306    336750.54   0.73511073   0.85631245    4.1290104 
     -0.0345  0.019049676  0.003834496     3450    296.53224    62.571243    60.081996    89.630522   0.03644436  -0.77820742  0.011515185  0.023106697 -0.024499171 0.0061233241   0.80466468    14551.749   -962928.68   -948376.93    110058.49   -341971.86   -738464.59   -970377.96    2853.5968     4030.521    565.16862    7449.2864    2402.3287    336957.45    0.7524699   0.87838008    4.1441613 
      -0.035  0.019174462 0.0043622585     3500     299.3034    62.604139    60.050882    89.641498  0.026074083  -0.78126939  0.030902968 -0.0048994413 0.0049496418  0.017246555   0.81040928    14687.738   -963017.32   -948329.58    109983.33   -341944.83   -738484.26   -970445.76    2871.2719     4002.464    554.70756    7428.4434    2382.7365    337001.27   0.76985553   0.89305259    4.1670948 
     -0.0355  0.019178331 0.0043816345     3550    299.98209    62.605347    60.019767    89.641838  0.065946415  -0.76269213 -0.022886909 0.0051139763  0.019104148 -0.0029813368   0.78874744    14721.044   -963026.49   -948305.44    110035.05   -341992.69   -738449.18   -970406.82    2821.4552     3994.227    564.64898    7380.3312    2367.4073    336834.44   0.78532049    0.9017311    4.2085523 
      -0.036  0.019150834 0.0039770987     3600    299.81377    62.580132    59.988653     89.63942  -0.00586253  -0.78866184 -0.0057359111  0.022884682 -0.026354328 0.0056733261   0.78525488    14712.784   -963021.45   -948308.66    110550.26   -342514.57   -738479.93   -970444.24    2860.4684    4008.7071    553.62215    7422.7977    2632.6516    336515.15   0.79585962   0.91166676     4.225128 
     -0.0365  0.019276091 0.0035640031     3650    299.21088    62.554382    59.957538    89.650437 -0.020126276  -0.85933255 -0.036447458  0.013460133 0.0010474402 -0.0066616628   0.83157481    14683.198   -962990.37   -948307.17    110969.85   -342800.01   -738483.63   -970313.79    2837.2208    3921.5011    564.69914     7323.421    3013.0974    336243.54   0.80794986    0.9273865    4.2267082 
      -0.037  0.019652028 0.0033818742     3700    300.78336     62.54303    59.926424    89.683502 -0.0059585885  -0.86938869  0.007759291 -0.032981946  0.021585198  0.021365127   0.87382764    14760.365   -963050.16    -948289.8    110986.97   -342905.46   -738487.85   -970406.34    2854.6347     3955.352    546.19019    7356.1769    2854.1426    336131.98   0.82831784   0.94858018    4.2470802 
     -0.0375  0.020290439 0.0034564052     3750    299.42732    62.547676    59.895309    89.739654 -0.028321025  -0.80858752 -0.048692002  0.035591096 0.0057903772 0.0068266044   0.77290139    14693.819   -962977.73   -948283.91    110915.67    -342726.1   -738485.88   -970296.31    2796.3121    3989.0632    533.20197    7318.5772    2913.3993    336192.78   0.85871281   0.97749678    4.3023561 
      -0.038  0.021111743 0.0037078241     3800    301.27805    62.563347    59.864195    89.811892 0.0072778142  -0.85790963   0.01617821 0.00029813188 -0.007677525  0.019460835   0.87042651    14784.641   -963053.71   -948269.06     110750.2   -342624.54   -738465.88   -970340.22    2819.9275    3932.2635    534.32833    7286.5193    2745.1389    336372.87   0.89671886    1.0146962    4.3612401 
     -0.0385  0.021834461 0.0040239789     3850    300.57425    62.583054    59.833081    89.875458  -0.02568476  -0.85095492 0.0075761011 -0.018139092 0.0047412202 -0.030887024   0.84471466    14750.103   -963014.41   -948264.31    110682.33    -342537.1   -738471.65   -970326.42    2829.2782    3947.0938    535.63745    7312.0094    2858.9969    336541.97   0.93293828    1.0522213     4.420693 
      -0.039  0.022287002 0.0043369918     3900    297.30723    62.602564    59.801966    89.915262  0.020197657  -0.83698082  0.042808534  0.027614997  -0.02751638  0.020326421   0.87203581     14589.78   -962837.27   -948247.49    110665.99   -342373.23   -738464.95    -970172.2     2869.236    3902.0841    563.60447    7334.9246    2546.1786    336620.84   0.96069566    1.0838933    4.4584182 
     -0.0395   0.02237628 0.0044571192     3950    299.46909    62.610052    59.770852    89.923114  0.017871178  -0.88498771 -0.0045475033  0.019087712 -0.0092589013 -0.00047945748   0.89261792    14695.869   -962893.64   -948197.77    110556.32   -342337.69   -738466.11   -970247.48    2851.5607    3976.7706    525.51285    7353.8442    2867.5517    336515.33    0.9768563    1.1044155     4.473576 
       -0.04  0.022120595 0.0043132539     4000    300.72562    62.601085    59.739737    89.900625 -0.0079398888  -0.86355986  0.049958438 -0.016332595 -0.00034235453 -0.017716749    0.8869718    14757.531   -962929.77   -948172.24    110735.55   -342567.41   -738453.37   -970285.23    2865.2309    3938.7986    551.42413    7355.4537    2702.6608    336207.87   0.98282657    1.1128947     4.479666 
     -0.0405  0.021666412 0.0040920693     4050    299.45165    62.587298    59.708623    89.860678 -0.019074395  -0.91495147 -0.0067828506  0.028775126 -0.015555401  0.016446899   0.90431188    14695.014   -962861.04   -948166.02    111076.21   -342863.22    -738469.6    -970256.6    2812.6735    4017.1175    565.77601     7395.567    3095.0201    335809.47   0.98506743    1.1141378    4.4954911 
      -0.041  0.021239884 0.0041481883     4100    301.50269    62.590796    59.677508    89.823162 -0.0014923471  -0.95720721 -0.023520599 0.0005486945 -0.012466706 -0.0024204922    0.9451498    14795.664   -962960.43   -948164.77    111404.88   -343219.74   -738483.56   -970298.42    2811.1571    3967.8607    558.97023     7337.988    3231.2531    335513.11   0.99115612     1.116084    4.5339452 
     -0.0415  0.021059077  0.004557788     4150    303.34928    62.616327    59.646394    89.807259 -0.034821575  -0.97017248 -0.025072121 -0.0088876971 0.0040493288 -0.020340655    0.9410754    14886.282   -963058.74   -948172.46    111471.46   -343315.29    -738466.7   -970310.53    2785.1733     3933.553    533.05691    7251.7832    3388.6542    335415.58    1.0060195    1.1257936    4.5534378 
      -0.042   0.02119657 0.0051617979     4200    301.67042    62.653977    59.615279    89.819353 -0.012652449  -0.94666971 -0.014354744 0.0061174719 -0.0041760774  0.012641666   0.93351229    14803.895    -963007.5    -948203.6    111551.96    -343442.5   -738464.97   -970355.52     2812.093    4001.5319    534.39681    7348.0217     3203.148    335487.35    1.0294081    1.1449715    4.5770114 
     -0.0425  0.021623424 0.0057762121     4250    300.42673    62.692274    59.584165    89.856897  0.010531595  -0.98900143 -0.015815012 0.0061296779 -0.0034580549  0.025642697     0.987698    14742.864   -962963.81   -948220.94    111369.97   -343075.59   -738461.11   -970166.73    2822.8316    3847.2326    532.86349    7202.9276    3270.9428    335657.46    1.0577914    1.1732288    4.5987573 
      -0.043  0.022212836 0.0062842733     4300    298.54621    62.723943    59.553051    89.908738  0.044735762  -0.96123293 0.0017461339 -0.016755607 -0.0026073483 -0.028536208   0.98685384    14650.581   -962857.27   -948206.69    111121.26   -342918.47    -738479.7   -970276.91    2854.4098    4000.6746    564.55437    7419.6388    3009.2969    335845.29    1.0884754    1.2070002    4.6141466 
     -0.0435  0.022708241 0.0063521312     4350     300.4251    62.728173    59.521936    89.952312  0.043070973   -1.0262925   0.01269943 0.0018572947 -0.038853887  0.021052104    1.0572849    14742.784   -962935.93   -948193.14    111198.61   -342980.88   -738461.76   -970244.03    2827.5372    3911.0505    569.51422    7308.1019    3192.7696    335855.15    1.1161455    1.2352855    4.6497802 
      -0.044  0.023045209 0.0059795446     4400    300.77394    62.704948    59.490822     89.98195  0.008344442  -0.99239927  0.017424169 0.0060884942  0.010870291  0.022087976    1.0062734    14759.902   -962943.62   -948183.72    111547.09   -343342.55   -738468.75   -970264.21    2888.2649     3870.429     561.8906    7320.5845    3179.9676    335665.87    1.1386444    1.2570634    4.6916203 
     -0.0445  0.023382401 0.0055887887     4450     300.6909    62.680592    59.459707    90.011607 -0.047868597   -1.0460747 -0.001965986 -0.012164302 -0.016991725 -0.025329955    1.0235124    14755.828   -962937.15   -948181.33    111598.68   -343370.32   -738491.59   -970263.24    2831.5997    3942.7855    551.69621    7326.0814    3605.2612    335470.53    1.1606934    1.2812825    4.7173572 
      -0.045   0.02375582 0.0054508707     4500    299.67177    62.671995    59.428593    90.044451 -0.003484189  -0.94878064  0.010867584   0.02241286 -0.019771974  0.012075069   0.95418827    14705.815   -962900.34   -948194.52    111555.99   -343348.59   -738462.76   -970255.36    2855.8704    3966.0328    533.12182    7355.0251    3096.9562    335371.32    1.1872465    1.3083916    4.7310731 
     -0.0455  0.024107741 0.0055132689     4550    299.31937    62.675884    59.397478    90.075405 0.00046068373   -1.0350502 -0.025289217 -0.010245224 0.0095664978  0.004853664    1.0232016    14688.522   -962896.36   -948207.84     111752.2   -343516.51   -738444.42   -970208.73    2786.6629    3945.3094     580.3988    7312.3711    3486.7298    335331.77    1.2158236     1.334585    4.7636818 
      -0.046  0.024488871 0.0056614621     4600     301.6405    62.685122    59.366364    90.108927 -0.012702164   -1.0502603  0.008686178 -0.0068391986 -0.027418302 0.0032034925    1.0495725    14802.427   -963002.44   -948200.01    111840.32   -343585.58   -738479.18   -970224.45    2781.5077    3896.8513    543.64982    7222.0088    3468.2994    335330.26    1.2421751    1.3631201     4.796496 
     -0.0465  0.024888083 0.0058254225     4650    300.31471    62.695342    59.335249     90.14404 -0.036957062   -1.0387382 -0.018072171  0.031003329 -0.017747796 -0.0030611082    1.0132607    14737.367   -962939.86   -948202.49    111909.41   -343585.43   -738472.23   -970148.25    2786.3037    3898.7287    523.36324    7208.3956    3598.2151    335339.77    1.2667768    1.3940333    4.8303372 
      -0.047  0.025264551 0.0060709348     4700    301.01063    62.710645    59.304135    90.177152    0.0468149    -1.074821 -0.0013644311 -0.011084875  0.011887444  0.017636173    1.0991244    14771.517   -962958.49   -948186.98    111726.83   -343486.42   -738486.86   -970246.45    2819.0144    3933.2125    535.72864    7287.9556    3386.3658    335368.88    1.2940401    1.4236826     4.878734 
     -0.0475  0.025611504 0.0063365613     4750     300.3003    62.727202    59.273021    90.207668 -0.025739451    -1.042921  0.018786528 0.0044264895  0.011982875   0.01122753    1.0405766    14736.659   -962922.95   -948186.29    111864.08   -343559.99   -738464.69    -970160.6    2794.0494    3887.4404    556.15744    7237.6472    3453.8167    335394.88    1.3234411    1.4509674    4.9353266 
      -0.048  0.025979481 0.0065632135     4800    299.35802     62.74133    59.241906    90.240034  0.011667422   -1.1059413 0.0031569554 -0.0039251192 -0.028167052 0.0089624597    1.1145751    14690.419   -962857.89   -948167.47    111923.86   -343581.98   -738456.69    -970114.8    2790.6825    3923.7264    542.50654    7256.9154    3589.4957    335414.62    1.3514464    1.4790472    4.9647954 
     -0.0485  0.026271624 0.0065467329     4850     302.0507    62.740303    59.210792    90.265729   0.04021108   -1.0948011 0.0026491817 0.0076525061  0.017239728  0.030030438    1.1183931    14822.557   -962959.68   -948137.13    111824.38   -343550.94   -738466.36   -970192.91     2854.824    3845.1041     533.2953    7233.2234    3460.6162    335328.43    1.3736005    1.5041318    4.9761542 
      -0.049  0.026354053 0.0062595609     4900    300.00393    62.722403    59.179677    90.272979 0.0017694472   -1.1272883 -0.017323457  0.003700976  0.022022574  0.023600981    1.1210468    14722.115   -962859.26   -948137.14    112132.11   -343754.16   -738473.46    -970095.5    2793.6471    3891.9249    550.67657    7236.2486    3759.6588    335083.51    1.3884584    1.5205668    4.9764883 
     -0.0495  0.026365494 0.0059910702     4950    299.69452    62.705667    59.148563    90.273985 0.0089910784   -1.0866353 -0.0033692857 0.0022467647 -0.0059687168 0.0088490898    1.0896626    14706.932   -962820.35   -948113.42    112315.19   -343975.13   -738474.83   -970134.78    2808.5295    3942.5446    563.34713    7314.4213    3556.2579     334821.7    1.4017111    1.5338444    4.9745717 
       -0.05  0.026397148 0.0058698423     5000    300.74203     62.69811    59.117448    90.276769 -0.051822331   -1.1898602 0.0043382586 -0.024661834 0.0082943539 0.0012034341    1.1680036    14758.336   -962857.64   -948099.31    112635.09   -344264.91   -738474.51   -970104.33    2805.7701    3863.9526    576.96451    7246.6872    4070.5462    334615.57     1.414548    1.5485683    4.9957942 
     -0.0505  0.026627228 0.0059968341     5050    301.00891    62.706026    59.086334    90.297006 -0.0012852385   -1.1621686 -0.029531691 -0.0071473448  0.011028943 -0.0095596251    1.1473663    14771.433   -962868.12   -948096.69    112679.55   -344310.07   -738482.68    -970113.2    2758.1312     3927.908    559.03574     7245.075    3924.6171    334556.66       1.4346    1.5725607    5.0330347 
      -0.051  0.027097323 0.0062852212     5100    302.10011    62.724002    59.055219    90.338353 -0.029303787   -1.1606084 -0.017869478  0.033775195 -0.016661898 -0.00012348944    1.1389345    14824.982   -962919.43   -948094.45    112587.28   -344199.45   -738462.94    -970075.1    2777.4074    3856.4039    521.86492    7155.6762    3973.2927    334629.49    1.4673496    1.6066636    5.0759549 
     -0.0515  0.027640321 0.0067021036     5150    299.71445    62.749987    59.024105    90.386113 0.0054637842   -1.1846163 -0.016023322 -0.029637425  0.012197108 0.0074662003    1.1808597     14707.91   -962807.26   -948099.35    112563.68   -344211.75   -738487.99   -970136.06    2774.3626    3965.6038    588.82847    7328.7948    3931.8229    334768.63    1.5089983    1.6419017    5.1221623 
      -0.052  0.028141007 0.0071052086     5200     298.8535    62.775114     58.99299    90.430151  0.012204407   -1.2329761  0.027353477  0.012021203 -0.0076887626 0.0073925236    1.2531329    14665.661   -962760.09   -948094.43    112544.51   -344055.06   -738478.29   -969988.85    2759.8569    3912.1076    556.79305    7228.7576    3926.0406    334889.22    1.5509154    1.6743137    5.1686865 
     -0.0525  0.028522733 0.0072413075     5250    300.92705    62.783597    58.961876    90.463725  0.050198283   -1.1964463  0.009289059  0.012811971 -0.026553681 0.0071344824    1.2278264    14767.416   -962826.41      -948059    112377.81   -343948.82   -738459.49   -970030.49    2807.3671    3880.6829    516.02493    7204.0749    3740.3043    334882.12    1.5833227    1.7027129    5.1942328 
      -0.053  0.028690234 0.0069622423     5300    300.19992    62.766202    58.930762    90.478458 0.00046954194   -1.2394894 -0.013488548  0.019724472 -0.0025848946 -0.0037517371    1.2335375    14731.733   -962767.01   -948035.27    112805.44   -344293.73   -738467.75   -969956.03    2755.9458    3882.7426    550.33974    7189.0281    4120.4321    334667.16    1.6015933    1.7240758    5.2127862 
     -0.0535  0.028776205 0.0065515646     5350    300.94152    62.740604    58.899647    90.486019 -0.0097952325   -1.2753142 -0.0035627931  0.010258674  0.011881028 0.00090250494     1.268939    14768.126   -962766.99   -947998.86    113057.66   -344683.13   -738461.44   -970086.91    2818.2007    3909.0404    592.68601    7319.9271    4239.4021    334381.98    1.6156362    1.7436466    5.2326118 
      -0.054  0.028945473 0.0064143941     5400    299.93634    62.732054    58.868533    90.500907 -0.036618206   -1.2217881 -0.0019931502 -0.0028361368 -0.019595006    0.0114174    1.2035074    14718.799   -962711.57   -947992.77    113232.12   -344720.92   -738477.59   -969966.38    2816.6035    3874.7116    563.50063    7254.8158    4146.3917    334214.78    1.6357344     1.767417    5.2726504 
     -0.0545  0.029307387 0.0066979328     5450    301.36011    62.749727    58.837418     90.53274 -0.015340443   -1.2941147  -0.03165434 -0.011224054  0.011324582 -0.017068898    1.2713397    14788.667   -962785.46    -947996.8    113305.63   -344770.85    -738489.5   -969954.72    2795.9118    3809.1914    564.14961    7169.2528    4411.9072    334249.77    1.6674304    1.7985473    5.3084418 
      -0.055   0.02987266 0.0070918569     5500    299.66078    62.774281    58.806304    90.582458   0.01257275   -1.2868964 0.0064247309 -0.017160492 0.0083245489 -0.018916462    1.2972407    14705.276   -962691.68    -947986.4    113072.97    -344579.8   -738455.98   -969962.81    2810.0238     3904.187    556.92261    7271.1334     4171.063    334387.27    1.7110048    1.8356293    5.3562182 
     -0.0555   0.03045717 0.0072690814     5550     300.0337    62.785328    58.775189    90.633869  0.025642524   -1.3251667 -0.013301637  0.018088882 -0.0069499681  0.033694462    1.3334648    14723.576   -962714.67   -947991.09    113030.62   -344483.62   -738477.51   -969930.52    2782.2551    3851.5573    582.03474    7215.8471    4318.8611    334458.87    1.7546088    1.8730314    5.4079157 
      -0.056  0.030912531 0.0072620712     5600    299.25422    62.784891    58.744075     90.67392 0.0081906948   -1.2888559  0.039324369  0.028381214 0.0045933731 0.0057115937    1.3138716    14685.325   -962660.75   -947975.43    113106.95   -344579.91   -738468.61   -969941.57    2788.3504    3910.6539    581.81083    7280.8152    4083.6937    334427.21    1.7893107    1.9088441    5.4296348 
     -0.0565  0.031206828 0.0071824446     5650    301.70133    62.779928     58.71296    90.699805 -0.0078901305   -1.2919402 0.0076826582  0.014905209 0.0045160946 -0.0094384992    1.2922919    14805.412   -962750.53   -947945.12    113046.41   -344521.86   -738468.86   -969944.31    2783.2214    3876.6044    533.95021     7193.776    4250.8353    334319.07    1.8179134    1.9384909    5.4505212 
      -0.057  0.031340779  0.007155842     5700    301.14214     62.77827    58.681846    90.711587 -0.021836615   -1.3253375 -0.016162297 -0.035713535 0.0084529748   0.01945292    1.3083268    14777.971   -962740.75   -947962.78    113455.53   -344840.99   -738463.46   -969848.93    2691.3393    3849.8334    567.00336     7108.176    4485.0279    334176.47    1.8453156    1.9601604    5.4749989 
     -0.0575   0.03151221 0.0073232041     5750     298.9775    62.788702    58.650732    90.726665  0.010846105   -1.3321345  -0.04009572   0.01618362 -0.0086214938 -0.0094282624    1.3187317    14671.746   -962596.28   -947924.53    113485.19   -344875.34   -738458.22   -969848.37     2818.981    3845.3626    587.75166    7252.0952    4478.6054    334110.31    1.8771059    1.9851414    5.5048377 
      -0.058  0.031783369  0.007469645     5800     301.1894     62.79783    58.619617    90.750515 -0.0097029718   -1.3590853  0.041689488 -0.0091468241 -0.0048295092 0.0095118784    1.3760139     14780.29   -962673.47   -947893.18       113399   -344759.03   -738452.61   -969812.64    2748.6444    3816.3738    574.15677    7139.1751    4365.8154    334069.41    1.9089782    2.0175546    5.5197248 
     -0.0585  0.032077113 0.0075075599     5850    301.51165    62.800193    58.588503    90.776351 -0.011177991   -1.3916269 -0.0099819582  0.041813646 0.0068961326 -0.0051607497    1.3830255    14796.104   -962659.49   -947863.39    113483.45   -344853.27   -738467.12   -969836.93    2751.3514    3865.3653    560.72282    7177.4395    4647.7075    333999.72    1.9366829    2.0521431    5.5631017 
      -0.059  0.032256113  0.007581794     5900    301.30821     62.80482    58.557388    90.792095  0.022421975   -1.3827336  0.016205755 -0.026378826 -0.0034702709  0.033039279    1.4039816    14786.121   -962633.62    -947847.5    113591.88   -344976.99   -738457.14   -969842.25    2847.4317     3770.405    590.79363    7208.6303    4421.7644    333904.84    1.9600539    2.0823938    5.6096706 
     -0.0595  0.032267625 0.0077461659     5950      302.142    62.815066    58.526274    90.793107 -0.009327425   -1.3947152 0.0014242444 0.0085642539 -0.011963789 -0.024426017    1.3916715    14827.037   -962689.57   -947862.53    113747.66   -345091.49   -738477.06    -969820.9    2761.9374    3814.3001    555.09222    7131.3298    4614.2558    333785.58    1.9808826    2.1067177    5.6440902 
       -0.06  0.032209522 0.0080438126     6000     299.6582    62.833619    58.495159    90.787997 -0.030763996   -1.4425479  0.012410907 0.0043265062 -0.018820349  0.022807125    1.4347929     14705.15   -962572.37   -947867.22     113853.7   -345157.99    -738459.5   -969763.79    2788.0023    3844.6285    558.78541    7191.4162    4805.9906    333687.88    2.0034434    2.1276589    5.6683651 
     -0.0605  0.032187794 0.0085033337     6050    298.72822    62.862262    58.464045    90.786086 0.0023542603   -1.4489664 -0.00095018551 -0.013361811  0.028630336  0.011086808    1.4508308    14659.513   -962516.66   -947857.15    113912.46   -345169.79   -738446.45   -969703.78    2797.5643     3819.138    570.41909    7187.1213    4762.1097     333655.4     2.029667    2.1503536    5.7031787 
      -0.061  0.032279989 0.0089668518     6100    301.02352    62.891154     58.43293    90.794195  0.047319694   -1.4242569 -0.040702696  0.023796799  0.018378956 -0.0013666663    1.4305494     14772.15   -962599.67   -947827.52     113979.1    -345294.5   -738463.84   -969779.24    2780.0612    3842.9297    556.57716     7179.568    4663.6726     333660.9    2.0596689    2.1788932    5.7239109 
     -0.0615  0.032390071 0.0093411833     6150     298.4992    62.914487    58.401816    90.803877 -0.0090237801    -1.461778 -0.013431665 0.0038779965 -0.0093340124 0.0058927435    1.4506968    14648.274   -962446.69   -947798.42    114063.94    -345269.8   -738445.08   -969650.94    2756.6636     3880.316    567.26438    7204.2439    4882.7484    333642.53    2.0886604    2.2090735    5.7507647 
      -0.062  0.032600386 0.0096333998     6200    301.16525    62.932701    58.370702    90.822375 -0.0049995812   -1.4411457  0.013514186  -0.02417192 0.0060437305  0.011392224    1.4462706    14779.105   -962553.63   -947774.53    113959.53   -345204.92   -738448.74   -969694.13    2743.9362    3828.5599    567.99943    7140.4955    4712.9898    333629.27    2.1191028    2.2442174    5.7826557 
     -0.0625  0.032924997 0.0097618379     6250    300.42146    62.940707    58.339587    90.850926  0.032179814   -1.4796254 -0.010108197 0.0031477974  0.016125263  0.010553752    1.4914946    14742.605   -962487.87   -947745.27    113992.39   -345138.23   -738472.28   -969618.12    2776.0405     3802.137    552.06637    7130.2439    4794.9792    333598.69    2.1515463    2.2834768    5.8235466 
      -0.063  0.033292589 0.0096482392     6300    302.28198    62.933626    58.308473    90.883258  0.030806429   -1.5000951 -0.037246884  0.010518387 0.0024268995 -0.0098075038    1.4982476    14833.907   -962554.31    -947720.4    114118.77   -345335.28   -738456.98   -969673.49    2807.2444    3795.9507    515.98765    7119.1828    4956.1166     333501.9    2.1865479    2.3190636    5.8683828 
     -0.0635  0.033652517 0.0092451466     6350    300.73523    62.908501    58.277358    90.914915 -0.017026554   -1.5579662  0.021706654 -0.00074737181 -0.019899928  0.011733205    1.5611801    14758.003   -962478.96   -947720.96    114387.26   -345519.08   -738454.61   -969586.42    2735.5446    3792.8167    579.09401    7107.4553    5109.9139    333306.92     2.222802    2.3484768    5.9024914 
      -0.064  0.034093175  0.008681484     6400    298.14335    62.873366    58.246244    90.953674  0.018879628   -1.5685309 -0.019603362 -0.0020400142  0.017069717 -0.0074473177    1.5688588    14630.811    -962320.1   -947689.29    114788.84   -345887.24   -738454.31   -969552.72    2786.4502    3886.9573    559.20941    7232.6168    5162.4464    333084.85    2.2600543    2.3824488    5.9448541 
     -0.0645  0.034725085 0.0082415774     6450    301.21575    62.845946    58.215129    91.009253 -0.028032301   -1.5772796 -0.022239575  0.015064572  0.022983714 0.00040120451    1.5528815    14781.583   -962447.27   -947665.69    114926.03   -345998.25   -738460.93   -969533.15      2697.87    3816.2548    571.75237    7085.8772     5354.228    332965.08    2.3025061    2.4308445    5.9876487 
      -0.065  0.035439493 0.0081669348     6500    298.49109    62.841293    58.184015    91.072089  -0.05078671   -1.6049659  0.014054258 0.0089238508  0.019011208 -0.012855641    1.5881659    14647.876   -962277.68    -947629.8    114943.38   -345901.08   -738470.45   -969428.15    2749.6841    3841.1392    559.64323    7150.4666    5400.7678    332992.23    2.3491087    2.4885032    6.0563904 
     -0.0655  0.035979065 0.0084216352     6550    297.62941    62.857169      58.1529    91.119547  0.011493849   -1.5818256  0.044492383 0.0015025725   0.01106411 -0.0066337279    1.6102295    14605.591   -962182.09    -947576.5    114752.66   -345701.72   -738467.39   -969416.45     2800.842    3885.7569    547.75883    7234.3576    5019.6211    333071.71    2.3890828     2.542568    6.1033677 
      -0.066  0.036190505 0.0087423246     6600    303.83755    62.877159    58.121786    91.138144   0.01161481    -1.626194 -0.026275299 -0.0067251388 -0.0035845416  -0.01968123    1.6196089    14910.243   -962446.28   -947536.04    114669.96   -345678.13    -738469.1   -969477.27     2700.222    3772.5615    558.20903    7030.9925    5397.9915    333067.33    2.4198277    2.5784297    6.1316966 
     -0.0665  0.036297506 0.0089535299     6650    297.62392    62.890324    58.090672    91.147556 0.0036762761   -1.5880425  0.032521659 -0.013640873   0.02189572  0.037423708    1.6082639    14605.321    -962117.3   -947511.98    114958.91   -345844.12   -738469.88   -969355.09    2793.2143    3891.5716    552.99989    7237.7858    5105.1718    332993.11    2.4547214    2.6038895    6.1443063 
      -0.067  0.036451843 0.0091027137     6700     300.2205    62.899623    58.059557     91.16113 -0.036430601   -1.6754608  -0.01731612 0.0022843054 0.0098066376 0.0057267377    1.6487926    14732.744   -962214.64   -947481.89    115178.85    -346059.7   -738456.14   -969336.98    2758.2489    3789.5232    574.57613    7122.3482    5688.6503    332913.54    2.4940978    2.6286168    6.1588663 
     -0.0675  0.036684536 0.0092934715     6750    300.78627    62.911513    58.028443    91.181597  0.019977139   -1.6625359 -0.015260344  0.019645826  0.026262744  0.013738194    1.6663126    14760.508   -962200.23   -947439.72    115220.06   -346146.56   -738466.51   -969393.01    2780.8099    3846.9393    565.03635    7192.7855    5453.8009    332872.75    2.5308566    2.6576547     6.191354 
      -0.068  0.037003403 0.0094617863     6800    300.54654    62.922004    57.997328    91.209643 -0.013800958   -1.6773713 -0.014737715 -0.024081677  0.010750413 0.00067999402    1.6637297    14748.743   -962175.66   -947426.91    115304.03   -346163.55   -738461.73   -969321.25    2771.6709    3798.6119    575.31534     7145.598    5612.0074    332852.09    2.5648495    2.6942116    6.2293475 
     -0.0685   0.03741375 0.0096503591     6850    299.91958    62.933759    57.966214    91.245735 -0.00089690572   -1.6973652   0.02083505 0.0042272099 -0.026238133 0.0066052999    1.7080967    14717.976   -962136.77   -947418.79    115522.53   -346335.89   -738468.55   -969281.91    2752.4072    3827.0657    565.67166    7145.1446    5518.3059    332867.33    2.6031787    2.7366728    6.3192636 
      -0.069  0.037873908 0.0098608125     6900    299.52783    62.946877    57.935099    91.286208 -0.010071009   -1.7198997 -0.016308117 -0.0020725353 0.0065683104  0.029430581    1.7075215    14698.752    -962101.3   -947402.55    115277.39   -345997.38   -738452.89   -969172.89    2709.0848    3814.4251    548.07781    7071.5877    5744.8107    332905.61    2.6483389    2.7809781    6.3899091 
     -0.0695   0.03824146 0.0099461638     6950    301.14464    62.952197    57.903985    91.318536  0.033299458   -1.7118575  0.037472498 -0.013839628 0.0026650219 -0.0073364358    1.7474639    14778.094   -962139.66   -947361.57    115132.49   -345970.34   -738474.79   -969312.64     2774.967    3829.8143    568.19229    7172.9736    5398.7517    332872.78    2.6921685    2.8187437    6.4200671 
       -0.07  0.038453845 0.0098749897     7000     298.2983     62.94776     57.87287    91.337216 0.0058121605   -1.7167942 0.0028232948 0.0049276075 0.0064513391  0.029229642    1.7219157    14638.415   -961983.71   -947345.29    115561.73   -346222.72   -738458.73   -969119.72    2712.5302    3859.0967    564.38396    7136.0108    5619.4054    332738.52    2.7278449    2.8483054    6.4356712 
     -0.0705  0.038721607 0.0097630554     7050    301.30368    62.940783    57.841756    91.360767 -0.0016783876   -1.7336761 -0.036247854 -0.013257218 -0.020581976 -0.00075280699    1.7154989    14785.898   -962081.95   -947296.05    115681.36   -346417.86   -738463.88   -969200.39    2762.2862    3765.4628    590.68515    7118.4341    5828.1184     332608.5    2.7642876    2.8809662    6.4547898 
      -0.071  0.039166121 0.0096156843     7100    302.00147    62.931597    57.810642    91.399865 -0.005638597    -1.792528 -0.0017264316 -0.009053452 -0.0011368263 -0.0061172569    1.7889499    14820.141   -962091.99   -947271.85    115871.39   -346600.46   -738456.13    -969185.2    2665.8016    3858.1024    569.30139    7093.2054    5921.1877    332523.31    2.8066666    2.9228676    6.5012536 
     -0.0715  0.039783041 0.0095514905     7150    299.79596    62.927596    57.779527    91.454126 -0.0043658999   -1.7862361 0.0030057464  0.019051643 -0.010440616 -0.0022689542    1.7859682     14711.91   -961959.16   -947247.25    115958.29   -346574.78   -738474.95   -969091.45     2742.875    3793.5225    595.89968    7132.2972    5880.7343     332520.5    2.8564374    2.9730415    6.5621578 
      -0.072  0.040450069 0.0096304078     7200    299.10293    62.932515    57.748413    91.512794 -0.012047806   -1.7832446 -0.0031899705 0.00010441421  0.011160507 0.00021946781    1.7757476    14677.901   -961878.87   -947200.97    115922.43   -346443.57    -738460.4   -968981.54     2724.424    3815.3184    562.92255     7102.665    5916.5471    332580.63    2.9096589     3.024266    6.6290152 
     -0.0725  0.041052228 0.0097477882     7250    301.97982    62.939832    57.717298    91.565757  0.028241189   -1.8024692 0.0028809363  -0.02674594 -0.012341363 -0.0067116444    1.8189158    14819.079   -961972.08      -947153    115845.82    -346415.1   -738466.09   -969035.37    2716.6819    3773.1512    573.45952    7063.2926    5827.2789    332632.48    2.9583594    3.0757038    6.6840575 
      -0.073  0.041552182 0.0097589793     7300    297.42902    62.940529    57.686184    91.609731 0.0070881651   -1.8153964 -0.028993098 0.00030663357   0.00708941 -0.0023475405    1.8047609    14595.757   -961703.14   -947107.38     116086.7   -346576.26   -738441.67   -968931.23    2758.6378    3868.8274    600.62466    7228.0898    6044.2514    332616.51    3.0016595    3.1251159    6.7146755 
     -0.0735   0.04200627 0.0097422702     7350    300.97464    62.939488    57.655069     91.64967 -0.012069447   -1.8175761 0.0031933655 -0.0035322016 -0.0097415569 0.0070980611    1.8133167    14769.751   -961833.51   -947063.76    116049.12   -346494.48   -738449.35   -968894.71    2746.9545    3754.8229     559.4165    7061.1939    6008.5604    332576.54    3.0486595    3.1692487    6.7688958 
      -0.074  0.042329403 0.0097045294     7400    301.60439    62.937135    57.623955    91.678091  0.028660103   -1.8207019 -0.010026707 -0.025959491  0.020380195 -0.024898283    1.8317254    14800.655    -961824.8   -947024.15    115994.74    -346491.8   -738443.28   -968940.33    2751.5197    3795.3849    568.62744    7115.5321    5928.3444    332487.71    3.0919826    3.2054505     6.819521 
     -0.0745  0.042565915 0.0096381013     7450    301.53097    62.932994     57.59284    91.698893 0.0014478151   -1.8658333 -0.011753076  0.011503114 -0.0043106153 -0.00018102829    1.8608375    14797.052   -961810.23   -947013.18    116239.76   -346721.15   -738447.15   -968928.54    2758.1579    3772.3985    587.74807    7118.3045    6172.0161    332361.71    3.1285098    3.2381034    6.8514483 
      -0.075  0.042843593 0.0097173062     7500    300.34362    62.937931    57.561726    91.723317 -0.0034183873      -1.8767 -0.050489513 0.0098954247 0.0033536811 -0.016399213    1.8505017    14738.785   -961749.21   -947010.42    116420.52   -346838.08   -738464.33   -968881.89    2736.8276    3835.7531    560.09786    7132.6785    6351.2062     332296.7    3.1649613    3.2752473    6.8876426 
     -0.0755  0.043204476 0.0098520534     7550    302.72661    62.946331    57.530612    91.755058 0.00096418151   -1.8868169  0.073758638 0.0051344434 0.0012758486 0.0037301952    1.9252434    14855.726   -961854.25   -946998.52    116412.52   -346838.42   -738475.71    -968901.6    2726.1011    3778.9785    542.27264    7047.3523    5961.3259    332276.34    3.2033699    3.3213876    6.9442653 
      -0.076   0.04345423 0.0099210624     7600    297.36087    62.950632    57.499497    91.777025 -0.0037868901   -1.9456859  0.014796304 0.0025558624 0.0074405597 -0.0075446388    1.9513483    14592.413   -961576.43   -946984.02    116545.42   -346849.13    -738471.7   -968775.41    2725.2869    3889.9674    583.72716    7198.9815    6364.5908    332198.84    3.2360355    3.3670621    6.9892333 
     -0.0765  0.043604358  0.010027659     7650    301.79024    62.957276    57.468383     91.79023 -0.0052699502   -1.9256718 -0.023413719  0.012847616  0.012476391 -0.0012978549    1.9116476    14809.775   -961762.12   -946952.35    116566.73   -346904.45   -738453.42   -968791.14    2718.1481     3738.806    572.06051    7029.0146    6429.3298     332101.9    3.2722509    3.4084446    7.0207675 
      -0.077  0.043722707  0.010169026     7700     301.9422    62.966088    57.437268    91.800639 0.0088289521   -1.9264101 0.0076033192 0.0067260892 -0.014603518 -0.017390212    1.9350614    14817.232   -961740.23      -946923     116698.6    -347012.2   -738464.63   -968778.23    2687.7506    3787.0682    563.18609    7038.0049    6283.3387     332006.2    3.3192505        3.445    7.0755914 
     -0.0775   0.04389984  0.010316395     7750     298.7455    62.975274    57.406154    91.816219 -0.011561593   -1.9819003 -0.018729232 0.0057271119 -0.002809813 0.0021500749    1.9667993     14660.36   -961553.23   -946892.87    117002.38   -347134.36   -738457.86   -968589.84    2701.7163    3788.4297    546.46027    7036.6063    6619.5942    331931.08    3.3716365     3.484695    7.0940568 
      -0.078  0.044325433    0.0105527     7800     298.0916    62.990003    57.375039    91.853652 -0.042289674   -1.9855221 -0.040458042  0.017038605 -0.023630029 0.0096436788    1.9448753    14628.272   -961473.47    -946845.2       117058   -347205.14   -738453.77   -968600.91    2711.0541    3813.5152    602.86856     7127.438    6804.0787    331964.05    3.4290835    3.5412437    7.1219405 
     -0.0785  0.045091716   0.01079116     7850    299.19076    63.004867    57.343925     91.92105  0.044462369   -1.9681181 -0.0023730344 0.0090905826 0.0014646406 0.0083893178    1.9896932    14682.211   -961459.27   -946777.05    117124.78   -347244.59   -738448.76   -968568.58    2712.2359    3833.5677    563.50653    7109.3101     6336.142    332105.82     3.496749    3.6187204    7.2116225 
      -0.079  0.045977775  0.010949763     7900    299.79813    63.014753     57.31281    91.998984  0.025348538   -1.9965471  0.022559552  0.015537145 -0.0051772168 0.0054507786    2.0207238    14712.016   -961426.18   -946714.17    116993.96   -347076.75   -738460.08   -968542.88     2760.806    3782.7665    573.12044    7116.6929    6410.5241    332259.17    3.5691958    3.7042958    7.3128331 
     -0.0795  0.046754256   0.01101103     7950    299.34116    63.018572    57.281696    92.067279 -0.0064927631   -2.0411029 -0.012056867 -0.0039676365 0.0034035787 -0.0044256558    2.0318685    14689.591   -961360.51   -946670.92    116952.98    -347045.3   -738436.93   -968529.25    2759.9933    3812.5153    596.22809    7168.7367    6775.7302    332345.45    3.6397579    3.7813996    7.4020674 
       -0.08  0.047271965  0.011018035     8000    302.20797    63.019009    57.250581    92.112814 0.0057784168   -1.9914528   0.04398954 -0.0052298504 -0.025366151 -0.0083766697    2.0171594    14830.275   -961474.26   -946643.99    116984.78   -347106.37   -738433.55   -968555.14    2754.2992    3760.9974    565.58477    7080.8813    6387.6466    332331.51    3.6997358    3.8407876    7.4759623 
     -0.0805  0.047437268  0.010972417     8050     300.9434    63.016165    57.219467    92.127353 0.0060278763   -2.0432119  0.021855979 0.00089039666 -0.016659149 0.0004045029    2.0574025    14768.218   -961417.35   -946649.13     117223.1   -347241.04   -738429.06   -968446.99    2740.1889    3727.9173    561.53944    7029.6456    6629.9138    332188.33    3.7391523    3.8802792    7.4987296 
      -0.081  0.047422195  0.010894602     8100    299.64327    63.011315    57.188353    92.126028 -0.030944011   -2.0625612 0.0066543946   0.02741799  0.011665467 -0.014001368    2.0514675    14704.417   -961331.07   -946626.65    117341.31   -347329.23   -738428.76   -968416.68    2724.6966     3793.778    567.13291    7085.6075    6865.2053    331977.37    3.7666286    3.9097387    7.4994369 
     -0.0815  0.047359351  0.010848551     8150    301.39651    63.008444    57.157238      92.1205   0.02857964   -2.0616728 -0.0094237552 -0.013952158 -0.031071054 -0.019204918     2.072619    14790.454   -961377.39   -946586.93    117346.95   -347356.78   -738444.25   -968454.08     2717.673    3828.5524    530.47047    7076.6958    6719.3583    331761.73    3.7920231    3.9339839    7.5482794 
      -0.082  0.047339334  0.010901605     8200    301.60287    63.011751    57.126124     92.11874 -0.033728296   -2.0735114 -0.024070692 -0.008622002 -0.0022723752 0.0054311324    2.0447089    14800.581   -961382.18    -946581.6     117694.6   -347633.88   -738438.13   -968377.41    2716.0579    3735.3097    543.85985    6995.2274    7011.4659    331592.19    3.8210114    3.9633855    7.5907014 
     -0.0825   0.04760183  0.011128976     8250    298.62435    63.025924    57.095009    92.141827 -0.021959654   -2.1025419 -0.048273071  0.010698553  0.014413902 -0.0088880991    2.0678421    14654.415   -961207.96   -946553.55    117892.96   -347751.32   -738429.29   -968287.66     2667.618    3829.1952    582.88123    7079.6944    7147.8726    331569.21    3.8684173    4.0128373    7.6425765 
      -0.083  0.048232557  0.011545536     8300    303.35965    63.051889    57.063895    92.197303 -0.019593143   -2.1433917 0.0095732177  -0.02287091 -0.029032135 -0.0045038739     2.139503    14886.791   -961399.58   -946512.79    117748.03   -347635.25   -738434.49   -968321.71    2670.9116    3715.4097    535.80986    6922.1312    7084.1736    331724.64    3.9413005    4.0835935    7.7370758 
     -0.0835  0.049006481  0.011997065     8350    298.80828    63.080034     57.03278    92.265374  0.017253227   -2.1433219 -0.0028732928 0.00035979233 -0.0057607091  0.014854072    2.1507596    14663.442   -961144.11   -946480.67     117658.5   -347428.84   -738417.57   -968187.92    2700.2473    3757.1446    586.41698    7043.8089    7003.6745    331936.65    4.0274105    4.1618089    7.8146142 
      -0.084  0.049706116  0.012247521     8400     299.1868    63.095645    57.001666     92.32691 -0.0021764796    -2.107369 -0.0044704544 -0.010183648  -0.01671489 0.0013820235    2.1043209    14682.017   -961104.43   -946422.41    117646.08   -347334.64   -738427.23   -968115.79    2696.0152    3739.4628    575.88422    7011.3623    6954.5716    332058.98    4.1097075     4.233223    7.8626258 
     -0.0845  0.050306372  0.012292965     8450    301.97212    63.098478    56.970551    92.379705  0.009422788   -2.1334156  0.026553607  -0.01369502 -0.0037993895 0.0040959603    2.1516074    14818.701   -961165.95   -946347.25     117647.4   -347360.84   -738425.02   -968138.46    2647.0407    3769.3094    556.15748    6972.5076    6900.0384    332082.42    4.1833907    4.2963174    7.9239389 
      -0.085  0.050733182  0.012123871     8500    300.89804    63.087938    56.939437    92.417246   0.01811505   -2.1636316  -0.01533701 -0.0068665607 0.0093682341 -0.017936583    2.1655308    14765.992   -961064.96   -946298.97    117774.99   -347491.06   -738425.49   -968141.55    2717.5046    3763.7006     595.3833    7076.5885    7108.6555    331980.46    4.2427716    4.3468808    7.9713038 
     -0.0855  0.051056313  0.011745382     8550    301.98494    63.064346    56.908323    92.445666 0.0091083898   -2.1701274  0.023187842  0.021033133 -0.00067035849  0.015661146    2.1867816     14819.33   -961096.19   -946276.86    118127.36   -347791.94   -738426.16   -968090.74    2696.3351     3741.464    556.74879    6994.5479    7032.9179    331776.97    4.2900439      4.38963    8.0018188 
      -0.086  0.051418362  0.011354852     8600      298.758    63.040003    56.877208    92.477511 -0.0049989727   -2.2229038 -0.031214001 -0.015026504 -0.0035620015 -0.0017663968    2.2050785    14660.974   -960918.86   -946257.89    118597.88    -348084.8   -738429.74   -967916.66    2663.6655    3788.7441    545.38413    6997.7937    7431.9163    331581.76    4.3343206    4.4358448      8.03903 
     -0.0865   0.05199395  0.011240328     8650    300.73663    63.032865    56.846094    92.528136 -0.034460555   -2.2439715 -0.048096693 -0.019962453  0.013389613  0.024013124    2.2035106    14758.072   -960965.76   -946207.69    118656.03   -348191.94   -738426.56   -967962.48     2680.109     3733.806    582.80321    6996.7182    7653.6846    331544.24    4.3912984    4.4976165    8.0886731 
      -0.087  0.052707151  0.011349007     8700    301.07766    63.039639    56.814979    92.590866  0.018659345   -2.2390105 -0.0063017164 -0.0064929164 -0.018377197 0.0065881509    2.2455761    14774.807   -960922.46   -946147.66    118447.27   -347920.88   -738441.28   -967914.89    2686.5183    3728.5475    577.36323    6992.4291    7325.1184    331623.06    4.4558944    4.5726561    8.1754149 
     -0.0875  0.053311578   0.01137534     8750    301.95302     63.04128    56.783865    92.644028 -0.0043373484   -2.2555381  0.028981124 -0.027569336  0.008238991 -0.005268923    2.2686094    14817.764   -960916.25   -946098.49    118342.93   -347817.72    -738424.1    -967898.9     2714.609    3713.4674    554.57193    6982.6483    7339.0717    331640.38    4.5133957    4.6435098    8.2619589 
      -0.088  0.053680535  0.011226269     8800    298.96705    63.031988     56.75275     92.67648 -0.018932373   -2.3194012 -0.034028377 -0.00037432398 -0.0045775842  0.015563233    2.2931304    14671.233   -960731.56   -946060.33    118683.56   -348036.27   -738421.68   -967774.39    2678.5459     3789.403    574.88001    7042.8289    7804.4641    331525.89    4.5602096    4.6976188    8.3204949 
     -0.0885   0.05397853  0.011171755     8850    297.91108    63.028591    56.721636     92.70269  0.014187139    -2.284581  0.025209469 0.0050817144    0.0157747 -0.026059207    2.3049199    14619.413   -960620.76   -946001.35    118894.26   -348205.32   -738427.43    -967738.5    2776.7345    3760.9333    580.06828    7117.7361    7386.0825    331419.97    4.6124218     4.747075    8.3598693 
      -0.089  0.054324795  0.011379395     8900     297.5855    63.041533    56.690521    92.733146 -0.0012461062   -2.3155316 -0.018354113 -0.024948907 0.0020500716  0.010691935    2.3062611    14603.436   -960532.75   -945929.31    118824.43   -348109.02    -738413.8   -967698.39    2745.0765    3849.1882    571.37499    7165.6398    7681.9864    331415.04    4.6753084    4.8013797     8.395588 
[...]
     -0.2775   0.60791766  0.085388633    27750    298.93556    67.654694    44.960375    141.42441 -0.0086713697  -0.55518832 -0.018068007 -0.023532065 -0.014344411  0.021510034   0.54525247    14669.687   -954482.39   -939812.71    114068.99    -338429.6   -736476.22   -960836.83    2286.6562    3367.3587     700.4218    6354.4368    1914.3933       430182    267.10444    275.03441    271.97048 
      -0.278   0.60885724  0.086138856    27800    302.41779    67.701457    44.929261    141.50705 -0.032503744  -0.58539948 -0.027781969  -0.01270786 0.00010837603  0.028918303   0.55796052    14840.571   -954643.01   -939802.44    114154.68    -338545.8   -736499.81   -960890.92     2244.345     3344.435    659.13414    6247.9141    2124.1391    430432.81    268.00915     275.9981    273.04727 
     -0.2785   0.60992098  0.086933655    27850    302.41857    67.750999    44.898146    141.60061  0.015725905  -0.53687778  0.026154181 -0.0029948686 -0.0077154636  0.033020477   0.56099807    14840.609   -954660.12   -939819.51    113706.04   -338168.12   -736519.49   -960981.57    2275.0814    3377.1842    669.18311    6321.4488    1628.4158    430734.09    269.07193    277.04531    273.98526 
      -0.279   0.61062637  0.087615159    27900    299.46532    67.793478    44.867032    141.66266 -0.012341551  -0.56144858  0.012969394 -0.013282795 -0.023859735  0.028944022   0.56639917    14695.684   -954542.75   -939847.07    113577.45   -337951.67   -736473.86   -960848.08    2244.2596    3369.9562    691.11192    6305.3277    1844.9568    430894.19    269.87544    277.80549    274.56242 
     -0.2795   0.61077195  0.088254989    27950    302.46992     67.83336    44.835917    141.67546 -0.015294066  -0.49539296 0.0090465665 -0.020901495 -0.027509131  0.018458314    0.4973694    14843.129   -954695.82   -939852.69    113700.77   -338260.36   -736471.66   -961031.25    2277.0514    3383.4363    674.94511    6335.4328    1650.2688    430887.63    270.21159    278.11129    274.85036 
       -0.28   0.61065202    0.0890985    28000    299.99162    67.885938    44.804803    141.66491 -0.041602246  -0.54315511 0.0011126074 -0.013772028 -0.010316493  0.013773186   0.52560535    14721.512   -954605.83   -939884.32    114005.67   -338375.55   -736488.39   -960858.26     2238.644    3381.6821    632.11116    6252.4373    1920.0419    430890.27    270.29409    278.22986    274.99784 
     -0.2805   0.61039837   0.09035954    28050    296.97241    67.964542    44.773688     141.6426 -0.028300155  -0.51612703 -0.0026394554 -0.0049169323 -0.013191842  0.026415599   0.50382484     14573.35   -954454.65    -939881.3    114116.11    -338453.3   -736493.14   -960830.34    2279.3874    3423.5875    672.71271    6375.6876    1799.7093    431021.73    270.29342    278.27095    275.12032 
      -0.281   0.61011711  0.091959298    28100    300.42801    68.064258    44.742574    141.61786 -0.043173985  -0.55366667 0.0098544084 -0.0051452168 -0.012217997 -0.0015453681   0.53946253    14742.927   -954588.56   -939845.64    113915.69   -338262.74   -736425.97   -960773.02    2241.9442    3275.7891    666.71954    6184.4528    1931.0346    431278.81    270.37833    278.28535    275.33198 
     -0.2815   0.60977005  0.093661441    28150    301.28056    68.170357     44.71146    141.58734  0.022550841  -0.53452043 -0.0003509069 -0.022211588 -0.022978612 -0.0041784373   0.54882736    14784.764   -954595.19   -939810.43    113674.31   -338166.85   -736418.84   -960911.37     2251.042    3388.9003    676.23977    6316.1821    1685.4034    431557.66    270.45265    278.26496    275.14428 
      -0.282   0.60953334  0.095229696    28200    302.32892    68.268109    44.680345    141.56652 -0.033430132  -0.49025682 -0.020742582 0.0026506921 -0.012000409   0.01361754   0.46438888     14836.21   -954647.91    -939811.7     113782.8   -338367.67   -736409.82   -960994.69    2275.1409    3390.7464    680.89002    6346.7774    1791.0339    431812.24     270.5511    278.33838    275.14177 
     -0.2825    0.6096943  0.096645834    28250      297.279     68.35638    44.649231    141.58068 -0.023747144  -0.52630421 -0.015018464 -0.015106067   0.01796171 0.0054965091   0.50869396    14588.395   -954433.13   -939844.74    113903.29   -338258.72   -736369.22   -960724.64    2257.6232    3383.1441    650.74213    6291.5094    1858.9352    432112.69    270.89001    278.72103    275.68419 
      -0.283   0.61000856  0.098156025    28300    299.55281    68.450514    44.618116    141.60832 -0.0077490099  -0.50086952 -0.0060956953 -0.0083549082 -0.039917239 0.00018446883   0.49897447    14699.978   -954531.82   -939831.84    113755.52   -338237.24   -736408.08   -960889.81    2280.1416    3389.3605     688.4886    6357.9907    1693.2781    432490.63    271.33454    279.25226    276.30718 
     -0.2835   0.61031607  0.099554364    28350    302.39504    68.537676    44.587002    141.63536  0.002088485  -0.50862273  -0.01253516 -0.0004410606 -0.027499717  0.023379155   0.50742525    14839.455   -954645.61   -939806.16    113595.78   -338029.45   -736422.98   -960856.65    2240.8778     3310.109    660.04942    6211.0362    1707.6056    432822.01    271.83698    279.74185    276.68028 
      -0.284   0.61061094   0.10059745    28400    301.41432    68.602694    44.555887     141.6613 -0.0008847489  -0.51922951 0.0031476164  -0.01692427 -0.039689583 0.00027372547   0.52571191    14791.328   -954599.23    -939807.9    113743.19   -338257.45   -736412.22   -960926.48    2273.2064    3418.9904    635.05329    6327.2502     1700.688    433009.56    272.35586     280.1449    277.32422 
     -0.2845   0.61081032   0.10158171    28450    300.36566    68.664044    44.524773    141.67883 -0.028652143  -0.52239074  0.008624747 0.0010546162 -0.035306614 -0.0029235257   0.51705034    14739.867   -954570.27    -939830.4    113634.81   -338050.53   -736432.93   -960848.66    2243.4973    3345.1985    689.69008    6278.3859    1784.4169    433147.76    272.73594     280.5126    277.49545 
      -0.285   0.61076243   0.10244303    28500    299.83824    68.717733    44.493658    141.67462  0.023564805  -0.48815151 0.0061876246 0.0076885473 -0.0058903619   0.01140851   0.50391989    14713.985   -954553.42   -939839.44    113553.88   -337959.59   -736441.64   -960847.35    2279.2616    3360.0241     654.6381    6293.9238    1508.0157    433170.63    272.86821    280.70809    277.34046 
     -0.2855   0.61058701    0.1030315    28550    300.53708    68.754413    44.462544    141.65919 -0.028645152  -0.52853825 0.0064504052 -0.003361504 0.0037641984  0.017520105   0.51929385    14748.279   -954588.48    -939840.2       113741    -338200.9   -736440.31    -960900.2    2261.0833    3398.3441    652.29552    6311.7229    1811.7707    433051.61    272.91103     280.7365    277.48161 
      -0.286   0.61055391   0.10365388    28600       301.57    68.793208     44.43143    141.65628 0.0020296863  -0.52079569 -0.016436469 -0.020085363 0.0092227512 -0.008982947   0.51550007    14798.967   -954647.85   -939848.88    113994.28   -338427.33   -736436.54    -960869.6    2269.7259    3306.0694    645.95283    6221.7481    1760.6792    432983.84      273.072    280.87877    277.81479 
     -0.2865   0.61085046     0.104456    28650    300.77739    68.843205    44.400315    141.68237 -0.020632496  -0.49495582 -0.019439433 -0.0025650554 0.0080047903  0.029515155   0.47788632    14760.071   -954626.39   -939866.32    113746.19   -338131.22   -736438.27   -960823.29    2218.7511      3349.48    628.67142    6196.9026    1760.1044    433074.82    273.47252    281.29584     278.0259 
      -0.287   0.61134887   0.10532128    28700    299.85296     68.89714    44.369201     141.7262  0.015053596   -0.5027955 0.0023246605 -0.020575063 0.00073326458 -0.0084279375   0.51305238    14714.707   -954591.88   -939877.18    113298.54   -337809.54   -736376.81    -960887.8    2268.8022    3370.0016    657.11501    6295.9189    1596.8986    433244.39    274.01435    281.85655     278.5609 
     -0.2875   0.61165995   0.10609517    28750    301.12373    68.945379    44.338086    141.75356 -0.009182971  -0.49064694  0.015482341 -0.014050197 -0.012712708 -0.0071306114   0.49550075    14777.067    -954661.7   -939884.63    113345.26   -337915.34   -736405.47   -960975.55    2261.1573    3361.3189    691.38022    6313.8564    1593.3796    433327.34    274.40701    282.25321    278.92736 
      -0.288   0.61173104   0.10681714    28800    302.49625    68.990381    44.306972    141.75982 -0.004376686  -0.50997532 -0.011046871 -0.0095515685 -0.0015092025 0.0024450802   0.50259377    14844.421   -954754.13   -939909.71    113782.41   -338389.88   -736417.77   -961025.25     2236.642    3392.4425    642.03223    6271.1167    1728.4279    433325.01    274.63583      282.449    279.11748 
     -0.2885   0.61214723   0.10755894    28850    299.01183    69.036619    44.275857    141.79642 -0.031580837  -0.51092261 -0.059750329 -0.032559372  0.013672262 0.0045532273   0.46996018     14673.43   -954598.78   -939925.35    114108.95   -338569.38   -736388.62   -960849.05    2248.4508    3323.0288     678.7971    6250.2767    1981.2609    433422.81    275.15649    282.89335    279.51783 
      -0.289   0.61321711   0.10872653    28900    300.91905    69.109397    44.244743    141.89052 -0.013706953  -0.47137885 0.0092009997 -0.021180004 -0.0080611599 -0.012399706   0.47167218    14767.023   -954688.73    -939921.7    113847.59   -338344.92    -736427.4   -960924.73    2252.4991    3301.4432    682.06209    6236.0044    1565.5393    433862.56    276.23369    283.86314    280.45708 
     -0.2895   0.61428384   0.11023742    28950    299.75961    69.203575    44.213628    141.98435 -0.0083806102  -0.48157437 0.00080636961   -0.0117889 -0.019244604 0.0027957405   0.47947409    14710.126    -954623.2   -939913.08    113361.31   -337708.24   -736406.65   -960753.58    2232.8298    3268.9527    628.59179    6130.3742    1609.1738    434435.35    277.31441    284.86306    281.35329 
       -0.29   0.61488184   0.11135447    29000    299.07626    69.273203    44.182514    142.03695  0.017325111  -0.48786276  0.028250741 -0.029071416  0.010907923 -0.0024457672   0.51357958    14676.592   -954568.53   -939891.94     112965.8   -337443.84   -736405.27    -960883.3    2266.2223    3328.4491    720.10384    6314.7753    1455.0108     434727.4     277.9492    285.48664    281.95918 
     -0.2905   0.61504524    0.1117509    29050    299.11663    69.297913      44.1514    142.05132  0.030601786   -0.4979865 -0.014635441 -0.012463931  0.019475542 -0.010908121   0.50941242    14678.573   -954534.25   -939855.67    113417.14   -337809.89   -736384.35   -960777.11    2252.9269    3340.0867    649.84643      6242.86     1585.723    434620.19    278.12657    285.73574    282.15581 
      -0.291   0.61528309   0.11195296    29100    300.41231    69.310508    44.120285    142.07224 -0.028478269  -0.47979131 -0.0066316839 -0.0042177617 0.0078515038 -0.012135747   0.46335787    14742.156      -954550   -939807.85     113817.4    -338165.4   -736400.18   -960748.18    2242.0858    3293.4326    662.65809    6198.1765    1693.8934    434456.81    278.32011    286.03145    282.38986 
     -0.2915   0.61585017   0.11247589    29150    301.68913    69.343103    44.089171    142.12211 -0.032604169  -0.51556385 -0.037088435 -0.013949054 -0.0092284361  0.017629955   0.48257239    14804.814   -954581.59   -939776.77    113984.29   -338441.52   -736434.25   -960891.47    2278.2355    3340.5523    691.09705    6309.8849     1925.344    434507.09    278.83642    286.56775    283.03256 
      -0.292   0.61681151   0.11325379    29200    301.96938    69.391591    44.058056    142.20667  0.013049707  -0.48199207 -0.016891935  0.024271139 -0.00061746261 -0.012817333   0.48311672    14818.566   -954611.44   -939792.87    113895.68    -338396.9   -736410.89   -960912.11    2300.5111    3306.3119    693.84905     6300.672    1598.2706    434762.57     279.7073    287.43873    283.92762 
     -0.2925   0.61790803   0.11406797    29250    301.78358    69.442341    44.026942    142.30311  0.011153093  -0.52719921 0.0081070242 -0.010102899  0.038097227 -0.0042237301   0.54120841    14809.449   -954647.38   -939837.93    113599.25   -338106.07    -736349.8   -960856.63     2230.483    3317.7871    660.98321    6209.2533    1670.9897    435068.13    280.67775     288.4577    284.85523 
      -0.293   0.61880111   0.11473745    29300    300.21139    69.484072    43.995827    142.38167 -0.018481563  -0.54395629  0.009319555 -0.011359901 -0.00067354034  0.018011244   0.54117196    14732.296   -954599.17   -939866.87    113753.72   -338263.91   -736349.76   -960859.95     2260.158    3322.8791    677.74301    6260.7801    1819.6177    435262.06     281.4814    289.29244     285.8762 
     -0.2935   0.61960865   0.11529424    29350     303.1762    69.518777    43.964713    142.45269 0.0062776659   -0.4936134 -0.024567213 -0.017202791 -0.0037022294   0.01080098   0.48652063    14877.788   -954758.18   -939880.39    113867.54    -338438.5    -736397.7   -960968.66    2245.9403    3301.3461    663.19041    6210.4769    1684.0298    435388.57    282.19908    290.04173    286.78753 
      -0.294   0.62052167     0.115884    29400    302.83837    69.555538    43.933598      142.533 -0.0017878763  -0.49506258 0.0018670286  0.012771168 -0.012608419 -0.0015384503   0.49609423    14861.211   -954778.12   -939916.91    113528.31    -338076.9   -736377.64   -960926.23    2208.4423    3276.7188     662.9463    6148.1074    1628.3689    435555.91    282.99115    290.89984    287.43124 
     -0.2945   0.62140175   0.11654646    29450    299.20948    69.596831    43.902484     142.6104 -0.022028877  -0.50818302 0.0034356701 -0.0052455492 -0.00053323493  0.012133071   0.49989901     14683.13   -954634.61   -939951.48    113558.77   -338101.68   -736346.28   -960889.19    2258.2674    3300.3354    695.98168    6254.5845    1732.9591    435742.35    283.78659    291.69976    288.19927 
      -0.295   0.62214618   0.11711621    29500    299.27115    69.632345     43.87137    142.67588   0.01319932  -0.48503037 -0.0017297057 -0.0031277104 -0.012779649  0.017164522   0.49236245    14686.156   -954632.18   -939946.03    113570.71   -338076.08   -736380.94    -960886.3    2258.1865    3316.9137    679.02012    6254.1203    1557.8938    435855.74    284.45609    292.36359     288.9154 
     -0.2955   0.62270201   0.11758125    29550    298.82565    69.661332    43.840255    142.72477  0.009501485  -0.47901605 -0.0067825722 0.00070454936 0.0050658079 0.0079620893    0.4808619    14664.294   -954593.74   -939929.45    113788.72   -338264.07   -736377.31   -960852.66    2269.9295    3320.7557    668.23264    6258.9179    1566.8957    435877.24     284.9108    292.91358    289.38817 
      -0.296    0.6232306   0.11825296    29600    299.61332    69.703201    43.809141    142.77126 -0.061811514  -0.53068413  -0.01028864 0.0089108632 0.0058643084  0.014620866   0.49763088    14702.947    -954609.7   -939906.76    114025.29   -338490.42   -736350.55   -960815.68    2220.5639    3305.9081     679.5056    6205.9777    1983.0061    435971.65    285.36087    293.45462    290.03025 
     -0.2965    0.6237871   0.11937637    29650    299.50043    69.773226    43.778026    142.82021 -0.0059518859  -0.52107763  0.015230664 -0.005599376 -0.014111461 -0.00070382359   0.52669522    14697.407   -954568.24   -939870.83    113971.21   -338379.72   -736375.69    -960784.2    2255.3293    3274.1437    686.48257    6215.9556    1683.6873    436249.19     285.9159    294.02361    290.69473 
      -0.297   0.62417072   0.12073861    29700    301.18879    69.858137    43.746912    142.85395 0.0091233787  -0.50695202 -0.026191816 0.0061660296 0.0022793688 -0.004693504   0.49955121     14780.26   -954601.35   -939821.09     113733.5   -338162.32   -736349.07   -960777.89    2225.3572    3296.7891    654.39421    6176.5405    1723.8933    436572.77    286.39701     294.4584     291.1375 
     -0.2975   0.62452118   0.12186649    29750    299.60824     69.92844    43.715797    142.88477 -0.0028078111  -0.51484194 0.0075880596 -0.0051735654 -0.0016331606 0.0093727539   0.51765038    14702.698   -954507.14   -939804.44    113825.77   -338300.43   -736335.21   -960809.87    2238.4713    3364.3663    699.88612    6302.7237    1677.9725    436795.54    286.84657    294.86007    291.43293 
      -0.298   0.62513277   0.12274253    29800    300.29369    69.983046    43.684683    142.93857 -0.00010350091  -0.49027173 -0.021070963 0.0067345235 -0.012797496  0.020111348   0.48194163    14736.335   -954527.76   -939791.43    113667.51   -338110.12    -736333.6   -960776.21    2218.3147    3344.2999    685.83036     6248.445    1682.5272    436989.95    287.44449    295.47513    292.03858 
     -0.2985   0.62568612   0.12356363    29850    301.51235    70.034227    43.653568    142.98724 -0.0064821436  -0.46496879    0.0444264 -0.0050191065 -0.0097573188 0.0045078015    0.4863792    14796.138   -954578.08   -939781.94    113334.25   -337746.09   -736332.98   -960744.83    2229.6196    3288.6486    648.47606    6166.7442    1404.8015    437146.86     287.9393    296.05138     292.6493 
      -0.299   0.62543244   0.12447429    29900    303.11193     70.09099    43.622454    142.96492 -0.035177942  -0.52105057  0.035203312 0.0024140733 0.00019886813 -0.0013957761   0.52463845    14874.635   -954661.21   -939786.57    113500.11   -337998.54    -736346.2   -960844.63    2208.1669    3281.0528    694.20047    6183.4201    1714.0397    437121.11    287.78618    295.99257    292.68508 
     -0.2995   0.62447976   0.12555942    29950    301.65211    70.158629    43.591339    142.88113 -0.010031103  -0.49399526 -0.013763312 -0.013408909 -0.015997945 -0.00052725091   0.48346356    14802.997   -954614.31   -939811.31    113990.73   -338474.49      -736341   -960824.76    2273.0368    3267.8412    669.57379    6210.4518    1703.3956    436974.59    287.15416    295.36368    292.00761 
        -0.3   0.62386283   0.12676276    30000    301.61163    70.233636    43.560225    142.82687 -0.028930041   -0.4974163 -0.028879163  -0.01387933  0.026922655  0.010820489   0.47181231    14801.011   -954646.48   -939845.47    113985.63   -338601.59   -736298.23   -960914.19     2243.319    3357.4449    666.95425    6267.7181    1826.5499    436963.52    286.87081    294.99172    291.64073 
Loop time of 3179.27 on 6 procs for 30000 steps with 16464 atoms

Performance: 0.815 ns/day, 29.438 hours/ns, 9.436 timesteps/s
135.5% CPU use with 1 MPI tasks x 6 OpenMP threads

MPI task timing breakdown:
Section |  min time  |  avg time  |  max time  |%varavg| %total
---------------------------------------------------------------
Pair    | 1330.7     | 1330.7     | 1330.7     |   0.0 | 41.86
Bond    | 67.386     | 67.386     | 67.386     |   0.0 |  2.12
Kspace  | 559.22     | 559.22     | 559.22     |   0.0 | 17.59
Neigh   | 101.38     | 101.38     | 101.38     |   0.0 |  3.19
Comm    | 6.8094     | 6.8094     | 6.8094     |   0.0 |  0.21
Output  | 9.6504     | 9.6504     | 9.6504     |   0.0 |  0.30
Modify  | 1100.2     | 1100.2     | 1100.2     |   0.0 | 34.60
Other   |            | 3.916      |            |       |  0.12

Nlocal:        16464.0 ave       16464 max       16464 min
Histogram: 1 0 0 0 0 0 0 0 0 0
Nghost:        23516.0 ave       23516 max       23516 min
Histogram: 1 0 0 0 0 0 0 0 0 0
Neighs:    1.75002e+06 ave 1.75002e+06 max 1.75002e+06 min
Histogram: 1 0 0 0 0 0 0 0 0 0
FullNghs:  4.49428e+06 ave 4.49428e+06 max 4.49428e+06 min
Histogram: 1 0 0 0 0 0 0 0 0 0

Total # of neighbors = 4494279
Ave neighs/atom = 272.97613
Ave special neighs/atom = 4.6666667
Neighbor list builds = 1264
Dangerous builds = 0

unfix 3
unfix 4

print "all done!"
all done!
Total wall time: 0:53:13
