LAMMPS (29 Oct 2020)
  using 6 OpenMP thread(s) per MPI task
#Initialization----------
units       real
boundary p p p
atom_style  full
pair_style   hybrid lj/charmm/coul/long 9.9 10. buck/coul/long 9.9 10.
bond_style      harmonic
angle_style     harmonic
special_bonds   amber
dihedral_style  charmm
kspace_style pppm 1.0e-4
kspace_modify diff ad

#Reading data file(with bonded interactions) and potential file(non bonded)------------
read_data    NPT777_aniso.data
Reading data file ...
  orthogonal box = (-0.89082456 0.35542204 1.9517850) to (61.441406 62.584315 89.906793)
  1 by 1 by 1 MPI processor grid
  reading atoms ...
  16464 atoms
  reading velocities ...
  16464 velocities
  scanning bonds ...
  4 = max bonds/atom
  scanning angles ...
  6 = max angles/atom
  scanning dihedrals ...
  9 = max dihedrals/atom
  reading bonds ...
  9604 bonds
  reading angles ...
  16464 angles
  reading dihedrals ...
  12348 dihedrals
Finding 1-2 1-3 1-4 neighbors ...
  special bond factors lj:    0.0      0.0      0.5     
  special bond factors coul:  0.0      0.0      0.8333333333333334
     4 = max # of 1-2 neighbors
     3 = max # of 1-3 neighbors
     6 = max # of 1-4 neighbors
     7 = max # of special neighbors
  special bonds CPU = 0.008 seconds
  read_data CPU = 0.172 seconds
#read_restart restart.txt
include dlpoly2lammps.nonbonding
 pair_coeff           1           3 lj/charmm/coul/long   1.4000000000000000E-002   2.2645400000000002
 pair_coeff           2           3 lj/charmm/coul/long   5.7400000000000000E-002   2.7500000000000000
 pair_coeff           3           3 lj/charmm/coul/long   1.5699999999999999E-002   1.0690999999999999
 pair_coeff           3           4 lj/charmm/coul/long   5.1700000000000003E-002   2.1595000000000000
 pair_coeff           4           4 lj/charmm/coul/long  0.17000000000000001        3.2500000000000000
 pair_coeff           3           5 lj/charmm/coul/long   4.1399999999999999E-002   2.2343999999999999
 pair_coeff           4           5 lj/charmm/coul/long  0.13639999999999999        3.3248000000000002
 pair_coeff           5           5 lj/charmm/coul/long  0.10940000000000000        3.3997000000000002
 pair_coeff           1           6 lj/charmm/coul/long   1.4000000000000000E-002   2.7099899999999999
 pair_coeff           2           6 lj/charmm/coul/long   5.7400000000000000E-002   3.1000000000000001
 pair_coeff           3           6 lj/charmm/coul/long   1.5699999999999999E-002   1.5145000000000000
 pair_coeff           4           6 lj/charmm/coul/long   5.1700000000000003E-002   2.6050000000000000
 pair_coeff           5           6 lj/charmm/coul/long   4.1399999999999999E-002   2.6798000000000002
 pair_coeff           6           6 lj/charmm/coul/long   1.5699999999999999E-002   1.9600000000000000
 pair_coeff           1           1 buck/coul/long   70359906.629702002       0.13125800000000001        0.0000000000000000
 pair_coeff           1           2 buck/coul/long   103496.13301000001       0.32173700000000000        0.0000000000000000
 pair_coeff           2           2 buck/coul/long   22793.338582000000       0.48221700000000001        696.94954199999995
 pair_coeff           1           4 buck/coul/long   32690390.937995002       0.15094700000000000        0.0000000000000000
 pair_coeff           2           4 buck/coul/long   112936.71421300001       0.34242600000000001        0.0000000000000000
 pair_coeff           1           5 buck/coul/long   32690390.937995002       0.15094700000000000        0.0000000000000000
 pair_coeff           2           5 buck/coul/long   112936.71421300001       0.34242600000000001        0.0000000000000000

group lead type 1
1372 atoms in group lead
group iodine type 2
4116 atoms in group iodine
group methylammonium molecule <> 5489 6860
10976 atoms in group methylammonium

timestep 1

############ ---------- Define Settings ------------------------------------------#####################
compute csym all centro/atom fcc
compute eng all pe/atom
compute stress all stress/atom NULL virial
compute eatoms all reduce sum c_eng
compute stress1 all reduce sum c_stress[1]
compute stress2 all reduce sum c_stress[2]
compute stress3 all reduce sum c_stress[3]
compute stress4 all reduce sum c_stress[4]
compute stress5 all reduce sum c_stress[5]
compute stress6 all reduce sum c_stress[6]

reset_timestep 0
timestep 1

##### Store cell length for strain calculations
variable tmpx equal "lx"
variable L0x equal ${tmpx}
variable L0x equal 62.3322301271326
print "Initial Length in x, L0x: ${L0x}"
Initial Length in x, L0x: 62.3322301271326

variable tmpy equal "ly"
variable L0y equal ${tmpy}
variable L0y equal 62.2288929287961
print "Initial Length in y, L0y: ${L0y}"
Initial Length in y, L0y: 62.2288929287961

variable tmpz equal "lz"
variable L0z equal ${tmpz}
variable L0z equal 87.9550080823369
print "Initial Length in z, L0z: ${L0z}"
Initial Length in z, L0z: 87.9550080823369

thermo 50

#######------Deformation------######
fix 3 all npt temp 300 300 100 y 1 1 1000 z 1 1 1000 drag 1
variable srate equal 1.0e10
variable srate1 equal "-v_srate / 1.0e15"
fix 4 all deform 1 x erate ${srate1} units box remap x
fix 4 all deform 1 x erate -1e-05 units box remap x

compute msdpb lead msd
compute msdi iodine msd
compute msdma methylammonium msd

compute myRDF all rdf 20 1 1 2 2 1 2 1 4 1 5 2 4 2 5 4 5
fix 2 all ave/time 1 1000 1000 c_myRDF[*] file stress.rdf mode vector

########-----output strain and stress info to file----#######
variable strainx equal "(lx - v_L0x)/v_L0x"
variable strainy equal "(ly - v_L0y)/v_L0y"
variable strainz equal "(lz - v_L0z)/v_L0z"
variable p1 equal "-pxx *1.01325/10000"
variable p2 equal "-pyy *1.01325/10000"
variable p3 equal "-pzz *1.01325/10000"
variable p4 equal "-pxy *1.01325/10000"
variable p5 equal "-pyz *1.01325/10000"
variable p6 equal "-pxz *1.01325/10000"
variable vonmises equal "sqrt(((v_p1-v_p2)^2+(v_p2-v_p3)^2+(v_p1-v_p3)^2+6*(v_p4^2+v_p5^2+v_p6^2))/2)"


dump 6 all custom 1000 deform.dump id element type mass xs ys zs c_csym c_eng q fx fy fz c_stress[1] c_stress[2] c_stress[3] c_stress[4] c_stress[5] c_stress[6]
dump_modify 6 element Pb I H N C H
thermo_style custom v_strainx v_strainy v_strainz step temp lx ly lz v_p1 v_p2 v_p3 v_p4 v_p5 v_p6 v_vonmises ke pe etotal evdwl ecoul elong epair ebond eangle edihed emol press vol c_msdpb[4] c_msdi[4] c_msdma[4]
run	30000
PPPM initialization ...
  using 12-bit tables for long-range coulomb (../kspace.cpp:328)
  G vector (1/distance) = 0.27077963
  grid = 40 40 60
  stencil order = 5
  estimated absolute RMS force accuracy = 0.037815386
  estimated relative force accuracy = 0.00011387991
  using double precision KISS FFT
  3d grid and FFT values/proc = 148003 96000
Neighbor list info ...
  update every 1 steps, delay 10 steps, check yes
  max neighbors/atom: 2000, page size: 100000
  master list distance cutoff = 12
  ghost atom cutoff = 12
  binsize = 6, bins = 11 11 15
  5 neighbor lists, perpetual/occasional/extra = 3 2 0
  (1) pair lj/charmm/coul/long, perpetual, skip from (5)
      attributes: half, newton on
      pair build: skip
      stencil: none
      bin: none
  (2) pair buck/coul/long, perpetual, skip from (5)
      attributes: half, newton on
      pair build: skip
      stencil: none
      bin: none
  (3) compute centro/atom, occasional
      attributes: full, newton on
      pair build: full/bin
      stencil: full/bin/3d
      bin: standard
  (4) compute rdf, occasional, copy from (5)
      attributes: half, newton on
      pair build: copy
      stencil: none
      bin: none
  (5) neighbor class addition, perpetual
      attributes: half, newton on
      pair build: half/bin/newton
      stencil: half/bin/3d/newton
      bin: standard
WARNING: Inconsistent image flags (../domain.cpp:812)
Per MPI rank memory allocation (min/avg/max) = 209.8 | 209.8 | 209.8 Mbytes
v_strainx v_strainy v_strainz Step Temp Lx Ly Lz v_p1 v_p2 v_p3 v_p4 v_p5 v_p6 v_vonmises KinEng PotEng TotEng E_vdwl E_coul E_long E_pair E_bond E_angle E_dihed E_mol Press Volume c_msdpb[4] c_msdi[4] c_msdma[4] 
-1.1399283e-16 4.5672851e-16 -4.8470877e-16        0    300.18499     62.33223    62.228893    87.955008 -0.017292815 -0.039250607 -0.017757825 -0.0035435147 -0.021960714  0.017474288  0.053597489    14731.001   -962944.29   -948213.29    106265.56   -338438.27   -738443.17   -970615.88    2933.6517    4177.6395    560.30762    7671.5989     244.4321    341165.66            0            0            0 
     -0.0005 3.2576269e-05 9.1013907e-05       50    299.42856    62.301064     62.23092    87.963013 -0.048980557  0.008996049 -0.0027705256 -0.0030254677 -0.0023372712 0.0013954087  0.053546647    14693.881   -962923.91   -948230.03     106415.9   -338427.18   -738436.17   -970447.45    2973.1935    3992.7301    557.61699    7523.5406    140.65312    341037.22 0.0092670048  0.015269811   0.25234755 
      -0.001 7.1573253e-05 0.00035424872      100    299.44781    62.269898    62.233347    87.986166  -0.04295398 -0.008314955  0.011267348  -0.01027728 -0.010710968 -0.018463415  0.062812225    14694.825   -962936.95   -948242.12    106301.77   -338378.65   -738445.86   -970522.73    2900.8194    4129.4377     555.5323    7585.7894    131.59499    340969.64  0.033163758  0.053593381    0.6311153 
     -0.0015 8.7965744e-05 0.00062498846      150    298.85901    62.238732    62.234367    88.009979  -0.01866612  0.012437508 -0.013977123 -0.0078123371 -0.031535207  0.018134624  0.070687178    14665.931   -962903.17   -948237.23     106343.8   -338400.61    -738433.2   -970490.01     2910.209    4144.4287    532.20471    7586.8424    66.471697     340896.8  0.063613886  0.099480151   0.97502059 
      -0.002 4.9539593e-05 0.0008730647      200    302.35155    62.207566    62.231976    88.031798 -0.028739205 -0.0054703692 -0.024074154 -0.016395315 -0.0024108326  0.013933717  0.043138751    14837.321    -963083.5   -948246.18    106437.38   -338566.83   -738439.77   -970569.22    2916.9669    4028.7295    540.02286    7485.7193    191.73856    340797.48  0.093026541   0.13948774    1.1604159 
     -0.0025 -4.5344702e-05 0.0012451641      250    301.02736      62.1764    62.226071    88.064526 -0.067446534   0.02045881  0.020676239 -0.0025754352  0.019181063 -0.020612025   0.10072098    14772.338   -963047.29   -948274.95    106372.54   -338479.51   -738446.94    -970553.9    2899.9021    4056.1168    550.58831    7506.6072    86.558057    340721.04   0.11641598   0.16875558    1.2993762 
      -0.003 -0.00013478119 0.0016828051      300    299.53135    62.145233    62.220506    88.103019 -0.071593029 -0.018334449 -0.038399738 -0.012753487 -0.020380952 -0.0076199182  0.063864989    14698.925   -962999.56   -948300.63    106474.07   -338540.46   -738445.82   -970512.22    2845.8936    4125.3891    541.37501    7512.6577    422.16372    340668.64   0.13243853    0.1899103    1.3937913 
     -0.0035 -0.00011057602 0.0021207743      350    298.53494    62.114067    62.222012    88.141541 -0.049449488 -0.021636808 0.0007164601   0.02116835  0.014269108 -0.012965831  0.065987694    14650.028   -962955.05   -948305.03    106655.61   -338752.95   -738445.09   -970542.42     2877.675    4145.1844    564.51051    7587.3699    231.49876    340654.91    0.1419693   0.20720943    1.4713831 
      -0.004 0.0001088454 0.0025338599      400    303.01816    62.082901    62.235666    88.177874  -0.10357775 -0.0025626649  0.010599691 -0.0054108853  0.021600383 0.0091848398   0.11596352    14870.033   -963180.74   -948310.71    106561.43   -338697.56   -738455.86   -970591.99    2837.5753    4034.6334    539.03682    7411.2455    314.30453    340699.09   0.14711406   0.22359162    1.5369048 
     -0.0045 0.00037503235  0.002872572      450    300.32118    62.051735    62.252231    88.207665 -0.075796842  0.020667344 -0.0046647145 -0.0052572862 -0.0054515215 0.0067516639  0.088386907    14737.684   -963064.12   -948326.44    106476.42   -338716.41   -738443.95   -970683.94    2919.0736    4173.9289    526.82061    7619.8231    196.70767    340733.77   0.15130819   0.24078184    1.6120646 
      -0.005 0.00063771535 0.0030539212      500    300.36755    62.020569    62.268577    88.223616 -0.077418348 0.0048716983   0.01165443   0.01377929 0.0030045869  0.016917628  0.093974018     14739.96   -963097.37   -948357.41    106478.78   -338578.21   -738438.89   -970538.33    2910.5479    4010.7334    519.67317    7440.9545    200.31983    340713.66   0.15645663   0.25745865    1.7248392 
     -0.0055 0.00077379622 0.0031080454      550    299.81372    61.989403    62.277045    88.228376   -0.1250173  0.040343615 -0.015385605  0.018237106  0.008943201 -0.0068037936      0.15037    14712.781    -963075.3   -948362.52    106610.42   -338701.72   -738445.27   -970536.57    2915.6176     4011.898    533.75643     7461.272    329.16947    340607.13   0.16226579   0.27188569     1.855187 
      -0.006 0.00059315835  0.003204296      600    297.38249    61.958237    62.265805    88.236842   -0.1199861  0.041694027 -0.025368243  -0.03185021 -0.012815295  0.014819186   0.15488707    14593.474   -962928.13   -948334.65    106774.43   -338773.53   -738439.92   -970439.02     2897.511    4053.5861     559.7966    7510.8937    341.01593     340407.1   0.16897645   0.28446873    1.9657396 
     -0.0065 9.2974632e-05 0.0034515338      650    300.23877    61.927071    62.234679    88.258588  -0.13731939 -0.0016598653 -0.014214113 0.0070010154 0.0013052538 -0.00034897218   0.13042443     14733.64   -963033.41   -948299.77    106807.05    -338945.3   -738452.53   -970590.77    2874.1249    4155.5003    527.73476      7557.36      503.967     340149.6   0.17634638   0.29530096    2.0613356 
      -0.007 -0.00042602299  0.003816056      700    301.52034    61.895905    62.202382    88.290649  -0.13795917 -0.033616543  0.015673461  0.028604218  -0.01335581 -0.0033630149   0.14657286     14796.53   -963086.15   -948289.62    107079.15   -339180.39    -738455.4   -970556.64    2859.3485    4062.3825    548.75582    7470.4868    512.87853    339925.42   0.18448382   0.30498231    2.1546797 
     -0.0075 -0.00054826646 0.0042686096      750    300.19738    61.864738    62.194775    88.330454   -0.1483974 -0.023376887 -0.037792957 -0.040559841  0.022651416 -0.0071824646   0.14375316    14731.609   -963029.83   -948298.22    107246.48   -339381.91   -738445.73   -970581.16     2881.017      4107.93     562.3837    7551.3308    689.42262    339865.86   0.19276288   0.31313296    2.2367924 
      -0.008 -0.0002492976 0.0048135974      800    300.41605    61.833572    62.213379    88.378388  -0.15058389 -0.020308403 -0.0013379368 0.0089251579 -0.0083089407  0.012529791    0.1439446     14742.34   -963057.38   -948315.04    107079.06   -339197.94   -738431.38   -970550.26    2875.8002    4086.4297    530.65232    7492.8821    566.59341    339980.66    0.1997267   0.31914979    2.3001625 
     -0.0085 0.00014133525 0.0053517663      850    297.95507    61.802406    62.237688    88.425723  -0.21386553 -0.0063662433  0.032421491  0.023295909 -0.010680309  0.013926904    0.2348639    14621.572   -962930.88   -948309.31    106941.62   -339018.21      -738436   -970512.59    2924.3389    4086.9327    570.43815    7581.7098    617.84779    340124.14   0.20395563    0.3235018    2.3708859 
      -0.009 0.00043875664 0.0057192918      900    299.48732     61.77124    62.256196    88.458048  -0.15946755  0.045543516  0.046030323 -0.012436586 -0.012322906 0.0047783029   0.20764788    14696.764   -962990.76      -948294    106939.57   -339025.62   -738461.17   -970547.22    2926.3087    4079.3892    550.75933    7556.4573    223.35295    340178.03   0.20516922   0.32630527    2.4367894 
     -0.0095 0.00051320646 0.0057762034      950    300.73859    61.740074    62.260829    88.463054  -0.23016137 -0.012131082 -0.0046615922  0.012596459 0.0093875392  0.017866116   0.22565363    14758.168    -963039.8   -948281.63     107044.7    -339125.6   -738445.35   -970526.25    2875.0379    4074.9836    536.42767    7486.4491    812.41564    340050.94   0.20428326   0.32584421    2.4920187 
       -0.01 0.00038629179 0.0056294094     1000     299.1025    61.708908    62.252931    88.450143  -0.22839648  0.030812613 0.0038504037   0.01964063 -0.029290694  0.025193055   0.25799735     14677.88   -962944.59   -948266.71    107444.21   -339586.88   -738462.74   -970605.42    2932.7443    4152.6481    575.43585    7660.8283    637.33355    339786.57   0.20339827   0.32303124    2.5563447 
     -0.0105 0.00032518059  0.005589324     1050    300.09501    61.677742    62.249129    88.446617   -0.2077534 -0.0042422901 -0.044665671 -0.0025580126   0.00942435 0.0060189721   0.18766722    14726.585   -963002.65   -948276.06    107732.88   -339823.72   -738447.58   -970538.42    2893.8944    4068.1025    573.77321    7535.7701    844.35024    339580.67   0.20570783   0.32159509     2.617917 
      -0.011 0.00051555638 0.0057982478     1100    301.69912    61.646576    62.260975    88.464993   -0.2640951 -0.046920246 -0.019670288 0.0037742496 -0.024417165 -0.0048839678   0.23606857    14805.304   -963094.46   -948289.16    107656.16   -339807.08   -738456.47   -970607.39     2895.669    4084.1181    533.13916    7512.9262    1087.8711    339544.21   0.21150211    0.3235418     2.678651 
     -0.0115 0.0009152299  0.006152611     1150    301.29874    61.615409    62.285847    88.496161  -0.21738849 -0.016671617  0.022899448  0.013075426  0.010508384 0.0082148968   0.22548248    14785.656   -963099.48   -948313.83    107359.27   -339599.96   -738469.22    -970709.9    2926.4161    4122.8101     561.1933    7610.4194    694.66457    339627.73   0.21835146   0.32898888    2.7469882 
      -0.012 0.0012009776 0.0064079695     1200    303.55199    61.584243    62.303628    88.518621  -0.23570814  0.039514167  0.013321887 -0.011129613  0.010767297  0.010435123   0.26508629     14896.23   -963266.51   -948370.28    107217.31    -339413.5   -738455.43   -970651.62    2838.9636    4003.3303    542.81652    7385.1105    601.60239    339639.03   0.22423533   0.33616093    2.8225176 
     -0.0125 0.0011809215  0.006445894     1250    298.61438    61.553077     62.30238    88.521957  -0.26919689  0.032528205 -0.012168215 0.0085567259  0.020898106 0.00055978546   0.28474648    14653.926   -963060.64   -948406.71    107347.06   -339443.05   -738458.91   -970554.89    2882.4595    4069.5918    542.19896    7494.2502    818.60977    339473.14   0.22859751   0.34186692    2.8829849 
      -0.013 0.00088865814 0.0064494347     1300     298.5864    61.521911    62.284193    88.522268  -0.26600816  0.008459765 -0.0042432833 -0.019901949 -0.016205909 -0.00041333018   0.27200019    14652.553   -963053.75    -948401.2    107734.78    -339834.7    -738462.3   -970562.22    2890.8357     4060.301     557.3253     7508.462    861.22768     339203.4    0.2321622   0.34657609    2.9370165 
     -0.0135 0.0005891518 0.0066083402     1350    300.04465    61.490745    62.265555    88.536245  -0.31505827 -0.020650928 -0.011190187  0.010643988 -7.4945626e-06  0.013207112   0.30068865    14724.114   -963097.19   -948373.07    108087.08   -340126.13   -738465.88   -970504.94    2872.6874    3989.2626    545.80259    7407.7526    1141.2102    338983.62   0.23530567   0.35351014    2.9926592 
      -0.014 0.00047203876 0.0070469379     1400    301.64581    61.459579    62.258267    88.574822  -0.33983437 -0.001512029 -0.042474743  0.020928844 0.0051524195   0.02848177   0.32574327    14802.688   -963150.87   -948348.19    108025.18   -340208.24   -738460.38   -970643.44    2863.9945    4081.2025    547.36509    7492.5621    1262.6734    338919.77    0.2411162   0.36366127    3.0531303 
     -0.0145 0.0003826301 0.0076813063     1450    299.84746    61.428413    62.252704    88.630617    -0.348027 -0.0048331431  0.023165513 -0.013715623 -0.0080332756 0.0099748419   0.35948764    14714.437   -963055.79   -948341.35    108033.65   -340108.62   -738472.55   -970547.51    2859.7688    4057.1899    574.76662    7491.7254     1084.611    338930.99   0.25104748   0.37589608    3.1071793 
      -0.015 0.00028883432 0.0084032496     1500    298.16998    61.397247    62.246867    88.694116  -0.30969898 -0.0044801994 -0.0092109138 -0.022170357 -0.0010906895  0.003428045   0.30536925    14632.118   -962957.25   -948325.13    107956.91   -339962.36   -738462.89   -970468.34    2877.6964    4111.6949    521.69113    7511.0825    1063.8707    338969.95   0.26358063   0.38864372    3.1575308 
     -0.0155 0.0002750639 0.0090723703     1550    297.32893    61.366081     62.24601    88.752968  -0.32917952 -0.0068059833 -0.0077999221  0.034894911 -0.0006619634  0.016779252     0.328792    14590.845   -962891.74    -948300.9    107844.06   -339868.73   -738444.51   -970469.18     2852.545     4186.055    538.83815    7577.4381    1130.9661    339018.03   0.27723122   0.39992771    3.2064292 
      -0.016 0.00031554018 0.0095304338     1600    300.74415    61.334914    62.248529    88.793257  -0.35573753 3.4140521e-05  0.039689835  0.022082296  0.016736857 -0.0070198411   0.38040177    14758.441   -963018.46   -948260.02    107926.62   -339992.29   -738449.84   -970515.52    2878.4596    4050.7344    567.86807    7497.0621    1039.6038    339013.38   0.28977073   0.40862116    3.2425825 
     -0.0165 0.00037652326 0.0097463341     1650    300.32281    61.303748    62.252324    88.812247  -0.31384181 -0.012369604  0.035504042 -0.021504107  -0.01215599 -0.0014255751   0.33082719    14737.764   -962988.62   -948250.85    108041.04   -340152.81   -738479.66   -970591.43    2896.8261    4160.9713     545.0104    7602.8078     956.3529    338934.25   0.29888187   0.41630093    3.2514082 
      -0.017 0.00057216444  0.009836033     1700    301.39059    61.272582    62.264498    88.820136  -0.39065028 -0.048547996 -0.027562738 -0.0025014361 -0.015398947 -0.011487441   0.35465405    14790.164   -963071.33   -948281.17    108205.97   -340283.98   -738463.69   -970541.69    2884.6694    4052.2169    533.47044    7470.3568    1535.5243    338858.29   0.30598188   0.42489944    3.2755768 
     -0.0175 0.0009316418  0.009872132     1750     299.2617    61.241416    62.286868    88.823312  -0.39231199  0.048898345  0.016911951  0.012358438  0.005098821  0.037939884   0.43177708    14685.692   -962986.23   -948300.54    108437.33   -340489.92   -738460.59   -970513.19    2941.7498    4046.4135    538.79471     7526.958    1074.1071    338819.72   0.31301576   0.43388318    3.3089164 
      -0.018 0.0011833523 0.0099277757     1800    298.13693     61.21025    62.302532    88.828206  -0.42946599 -0.00066085691 0.0069507015  0.011573053  0.022273472  0.021202966   0.43638799    14630.496   -962931.76   -948301.27     108435.9   -340365.55   -738446.73   -970376.38     2910.263    3993.5052    540.85476     7444.623    1392.1413    338751.12   0.32003346    0.4433646     3.349952 
     -0.0185 0.0013502827   0.00997911     1850    300.27764    61.179084     62.31292    88.832721  -0.36252966 -0.011451688 -0.020032388 0.0070784981 -0.013289186 -0.027239269   0.35103124    14735.547   -963017.01   -948281.46    108268.23   -340384.97   -738469.66   -970586.39    2934.2427    4094.9028    540.23726    7569.3828    1296.2044     338652.3   0.32625816   0.45336147    3.3730068 
      -0.019 0.0015454602 0.0099108695     1900    299.98792    61.147918    62.325065    88.826719  -0.45461704 -0.0061111324  0.055154024  0.031537595 0.0028005133  0.032394473   0.48841002     14721.33    -963013.8   -948292.47    108520.28   -340512.72   -738476.26    -970468.7    2877.6416    4048.4304    528.83118    7454.9032    1334.2352    338522.89   0.33243224   0.46161429    3.3835921 
     -0.0195 0.0017634039 0.0098428208     1950    298.60825    61.116752    62.338628    88.820733   -0.4023513  0.026699763 -0.032454188 -0.016436419 0.0085979087 -0.00028805343   0.40402528    14653.625   -962952.17   -948298.55       108709   -340755.94   -738453.78   -970500.72    2881.9451    4106.6572    559.94628    7548.5485    1342.5635    338401.17    0.3407926   0.46862981    3.3919883 
       -0.02  0.002026327 0.0099567634     2000    300.70144    61.085586    62.354989    88.830755  -0.47102925 -0.039323669 -0.060503959 0.0072846332 -0.011720849 -0.018384251     0.423391    14756.344   -963054.56   -948298.22    108802.63   -340877.83   -738467.49   -970542.69     2875.199    4055.5804    557.35027    7488.1296    1877.9731    338355.55   0.35227151   0.47787508     3.434836 
     -0.0205 0.0022700728   0.01039153     2050     300.4087    61.054419    62.370157    88.868995   -0.4471218  0.025637513 -0.014485781 0.0022042898 -0.0024509995 0.00037462069   0.45406564    14741.979   -963047.45   -948305.47    108860.34   -340880.54   -738465.21    -970485.4    2885.5366    4016.5195    535.89384    7437.9499      1434.23     338410.8   0.36700642   0.49318351    3.4805818 
      -0.021 0.0023742352  0.011072409     2100    298.60442    61.023253    62.376639    88.928882  -0.46250303  0.012675385  0.031612877  0.039253637  0.020544977 -0.00029248683    0.4909592    14653.437   -962960.86   -948307.42    108821.24   -340780.81   -738473.27   -970432.84    2904.0926    4040.5219    527.37153     7471.986    1375.8196    338501.16    0.3838056   0.51279696    3.5143894 
     -0.0215 0.0023301242  0.011752855     2150    299.48347    60.992087    62.373894    88.988731  -0.47718436 0.0052539763 -0.055669084 0.00075569692 -0.0077347119 -0.026898563    0.4576227    14696.575   -962982.46   -948285.89       108657   -340685.08   -738454.66   -970482.74    2928.9248    4028.4329    542.91593    7500.2737    1735.6673    338541.07   0.40131535    0.5308434     3.546456 
      -0.022 0.0021127811  0.012350109     2200    299.03783    60.960921    62.360369    89.041262  -0.46961843 -0.00062926755   0.01333594 -0.014279718 0.0038618176 0.0064952471   0.47694699    14674.706   -962933.96   -948259.25    108708.37    -340668.3   -738437.01   -970396.93      2877.35    4068.4855    517.13707    7462.9726    1503.1228    338494.41   0.41811905    0.5464807    3.5939466 
     -0.0225 0.0018060336  0.012853653     2250     302.9807    60.929755     62.34128    89.085551  -0.44900676  0.048314028   0.01508701 0.0022689315  0.012340177 -0.0039953051   0.48210755    14868.195   -963101.05   -948232.86    108704.81   -340773.91   -738474.37   -970543.47    2880.1491    4029.4651    532.80267    7442.4169    1268.5442    338386.03   0.43219446   0.56149239    3.6315951 
      -0.023 0.0014259087  0.013189312     2300    298.59909    60.898589    62.317626    89.115074  -0.50199084 -0.032489211 -0.042447935 -0.0049054029 -0.020673282  0.006893582    0.4662105    14653.176   -962900.37   -948247.19    108954.47   -340979.32   -738453.49   -970478.33    2931.2424    4119.7501    526.97443    7577.9669    1897.9455    338196.65   0.44322102   0.57511812    3.6689666 
     -0.0235  0.001053395  0.013581186     2350    300.09332    60.867423    62.294445    89.149541   -0.5550052 -0.011227136  0.028332556  0.021607263 -0.0094748923 -0.020262094   0.56716209    14726.502      -962989    -948262.5    109206.17   -341190.63   -738473.59   -970458.05    2876.6083    4060.0023    532.43844     7469.049    1769.5527    338028.52   0.45574759   0.58960631    3.7022339 
      -0.024 0.00076514619  0.014113761     2400    299.63647    60.836257    62.276507    89.196384  -0.52559257   0.02024196 -0.029833831 0.0059787478   0.01280222 -0.0079875734   0.52335471    14704.083   -962971.92   -948267.84     109348.4   -341236.64   -738454.52   -970342.75    2857.0061    3996.6083    517.21853    7370.8329    1760.6199    337935.63   0.47069803   0.60664898    3.7294752 
     -0.0245 0.00070041208  0.014733273     2450    300.06959     60.80509    62.272479    89.250873  -0.57610321 -0.036606073 -0.00034282144 -0.015459932 -0.0049627494 -0.0079809609   0.55939083    14725.338   -962965.42   -948240.08    109361.46   -341277.81   -738465.98   -970382.33    2834.4463    4041.8473    540.61912    7416.9127    2016.7846    337946.98   0.48745649   0.62557837    3.7494568 
      -0.025 0.00086754364   0.01531626     2500    300.60782    60.773924    62.282879     89.30215  -0.54048501 -0.027114217  0.014077083 -0.011176571 -0.013849218 0.0075020882   0.53620117    14751.751   -962946.76   -948195.01    109296.92   -341225.91    -738458.9   -970387.88    2846.5913     4042.553    551.98117    7441.1254    1820.9463    338024.26   0.50505908   0.64304895    3.7877125 
     -0.0255 0.0011371722  0.015710667     2550    301.99079    60.742758    62.299658     89.33684  -0.54177278  0.014325076  0.029118387 0.0015942851  0.011754691  0.016068477   0.56470074    14819.617   -962988.01   -948168.39    109082.72   -341025.35   -738455.83   -970398.46    2854.2897    4061.8982    494.26632    7410.4542     1639.376    338073.21   0.52090371   0.65627842    3.8092966 
      -0.026 0.0013695667  0.015780152     2600    301.95011    60.711592     62.31412    89.342951  -0.56519503 -0.0018161481 -0.0003731082 -0.014222348  0.019586414 -0.015053398   0.56625819    14817.621   -962983.99   -948166.37    109089.64    -341028.9   -738456.06   -970395.31    2878.4572    3971.2278    561.63552    7411.3205    1866.5492    338001.31   0.53042647   0.66376663    3.8369221 
     -0.0265 0.0014802363  0.015672031     2650    301.54159    60.680426    62.321006    89.333442  -0.59391412 -0.0073879237 0.00098212036  0.013703661 -0.021807002 0.0074220585   0.59257705    14797.573   -962966.17    -948168.6     109348.5   -341356.84   -738473.95   -970482.29    2907.9823    4042.9287    565.20872    7516.1197     1974.899    337829.17   0.53598609   0.66864406    3.8559298 
      -0.027 0.0014893789  0.015648776     2700    297.99627     60.64926    62.321575    89.331396  -0.59260442   0.05943341 -0.0093666399 -0.00063314129  0.010003994 0.00036999769   0.62074826    14623.593   -962806.57   -948182.98    109555.83    -341446.7   -738463.77   -970354.64    2954.3044    4033.3393      560.422    7548.0656    1784.8101    337651.01   0.54289128   0.67681262    3.8816482 
     -0.0275 0.0013609767  0.015807638     2750    297.57793    60.618094    62.313585    89.345369  -0.62624248 -0.031713109 -0.044292462 0.0059973754 0.0031641982 -0.013804438   0.58894333    14603.065    -962776.8   -948173.74    109743.13   -341567.84   -738468.12   -970292.84    2938.4215    4039.8529    537.76618    7516.0406    2310.2165    337487.01   0.55294706   0.68932687    3.9082828 
      -0.028 0.0012285515    0.0161884     2800    300.32922    60.586928    62.305344    89.378859  -0.60191272 -0.0052982511  0.034682432 -0.0014946689  -0.01109639 0.0017330051   0.61788788    14738.079   -962879.89   -948141.81     109793.2   -341669.92    -738492.6   -970369.32    2896.6227      4025.05     567.7559    7489.4285    1883.4725    337395.31   0.56784475    0.7062533    3.9489329 
     -0.0285 0.0010666592  0.016778073     2850    301.90822    60.555762     62.29527    89.430724  -0.61766389  0.025399631 -0.052798089 -0.0040807825  0.013546485  0.007270819   0.60837369    14815.565   -962952.36   -948136.79    109747.74   -341683.27   -738494.69   -970430.22    2882.8928    4031.6611    563.30549    7477.8594    2122.0901    337362.87   0.58963344   0.72876843    3.9785123 
      -0.029 0.00092647066  0.017481642     2900    301.39017    60.524595    62.286546    89.492606  -0.70149407   -0.0133991 0.0072693669 -0.0058981776 -0.030851867 -0.00087387696   0.70077522    14790.143   -962962.73   -948172.59    109731.56   -341683.69   -738481.37    -970433.5    2850.0762     4055.606    565.08643    7470.7686    2327.9013    337375.31   0.61735329   0.75444496    4.0233094 
     -0.0295 0.00081718087  0.018193251     2950     299.9288    60.493429    62.279745    89.555196  -0.63800558 -0.0099690174  0.021899597  0.030084888 -0.0051596666  0.013235626   0.64713283    14718.429   -962913.19   -948194.76    109994.84   -341770.08    -738487.4   -970262.64    2828.5166    3966.5048    554.43215    7349.4535    2059.6266    337400.58   0.64720539   0.78012273    4.0641987 
       -0.03 0.00084663881  0.018806384     3000    299.37979    60.462263    62.281578    89.609124  -0.64673834 -0.035891565  -0.01595801 -0.002983393 -0.0047974524  0.020003033   0.62209613    14691.487   -962863.13   -948171.64    109908.57      -341734   -738485.11   -970310.54    2852.5245    4064.5712    530.31603    7447.4117    2298.1756    337439.75   0.67428237   0.80290644     4.088558 
     -0.0305 0.0010854635   0.01914641     3050    300.91239    60.431097     62.29644    89.639031  -0.67203771 -0.026609707  0.067182074   0.01192454 -0.00080349303 2.4523986e-05   0.69737979    14766.696   -962904.67   -948137.98     109820.2   -341656.95   -738481.84   -970318.59    2899.1166    3974.4163    540.38712    7413.9201    2077.3595    337458.88   0.69269387   0.81941762     4.111718 
      -0.031 0.0014042336  0.019079846     3100    301.60443    60.399931    62.316277    89.633176  -0.71005991  0.016368103 -0.0078912242 -0.019069518 -0.024682177  0.012967281   0.71699829    14800.657   -962930.35   -948129.69    109984.93   -341857.41   -738472.23   -970344.72    2818.7568    4050.5044    545.11333    7414.3745    2308.0287    337370.21   0.69972802   0.82772194    4.1308717 
     -0.0315 0.0015519805  0.018789654     3150    299.78617    60.368765    62.325471    89.607652  -0.71195876  0.010180511  0.025657772  0.038821235  0.018978556 -0.011031727   0.73407652    14711.429   -962833.19   -948121.76    110257.36   -342079.52   -738481.19   -970303.35    2922.0071     4002.004    546.14485     7470.156    2224.2634    337149.84   0.70180475   0.83189883    4.1350467 
      -0.032 0.0016009322   0.01854301     3200    300.01833    60.337599    62.328517    89.585959  -0.77825844  0.017015159 -0.047427067  0.010630731 -0.015788909 -0.0032926196   0.76582186    14722.822   -962840.88   -948118.06    110474.87   -342325.08   -738475.02   -970325.24    2912.2652    4007.2849    564.81113    7484.3613    2660.3186    336910.67   0.70684401   0.83686238    4.1512516 
     -0.0325 0.0016723735   0.01856793     3250    298.10989    60.306433    62.332963    89.588151  -0.73569861 -0.046237682 -0.032478781 -0.011197409 -0.0037326977 0.0058041594   0.69681483    14629.169   -962742.06   -948112.89    110852.58   -342627.25   -738483.86   -970258.53    2920.6895    4029.2895    566.48319    7516.4622    2679.2173     336768.9    0.7193287   0.84777055    4.1910995 
      -0.033 0.0019531953  0.019059675     3300    296.79228    60.275267    62.350438    89.631402  -0.73663265 0.0064329795 -0.040000276 0.0023225491 -0.014156542 -0.033646523   0.72374947     14564.51   -962660.11    -948095.6    110741.83   -342484.42    -738485.6   -970228.18    2927.0474    4115.1072    525.91331    7568.0679    2533.7608    336851.77   0.74143165   0.87084062    4.2152006 
     -0.0335 0.0023135622  0.019860997     3350    300.39856      60.2441    62.372863    89.701882  -0.80837228 -2.2749354e-06  0.029401058  0.016371965 0.0079681093 -0.014706039   0.82446273    14741.481   -962823.01   -948081.52    110354.64    -342141.8   -738481.61   -970268.77    2893.9687    4013.7175    538.08011    7445.7663    2562.6236    337063.53   0.77008511   0.90280112    4.2628325 
      -0.034 0.0024950711  0.020597261     3400    300.97904    60.212934    62.384158     89.76664  -0.73453315  0.047324547  0.026495119 -0.016132781 -0.010603027 -0.0069352389   0.77247138    14769.967   -962838.01   -948068.04    110184.24   -341933.48   -738492.82   -970242.06    2847.8027     3986.812    569.44139     7404.056    2173.5784    337193.41   0.79784296   0.93376881    4.3219762 
     -0.0345 0.0024232386   0.02093798     3450    301.43555    60.181768    62.379688    89.796608    -0.786716  0.017639244   0.03375331 -0.007419205 -0.0071260926   0.01112451   0.81295583     14792.37   -962861.22   -948068.85    110133.98   -341960.01   -738489.51   -970315.55    2866.0088    4034.5443    553.77015    7454.3233     2419.026    337107.24   0.81743741   0.95394577    4.3548498 
      -0.035 0.0022202123   0.02083873     3500    298.65925    60.150602    62.367054    89.787879  -0.78966535 -0.037654189   0.01557482 0.0042033679  0.011342473 -0.024135151    0.7813894    14656.128   -962734.94   -948078.82    110445.87   -342107.06   -738465.55   -970126.74    2860.1789    3969.7519    561.86261    7391.7934    2670.4325    336831.67   0.82711011   0.96260212    4.3702373 
     -0.0355 0.0019744225  0.020552537     3550    299.11561    60.119436    62.351759    89.762707  -0.81482266  0.053023953 0.0037931782 0.0046543809 0.0034470586    0.0189317   0.84500445    14678.523   -962729.44   -948050.92    110847.88   -342534.33   -738492.52   -970178.97    2858.8569    4024.1452    566.52948    7449.5316    2493.6443    336480.23   0.83115066   0.96628667    4.3810527 
      -0.036 0.0017118084  0.020300732     3600    299.85571     60.08827    62.335417    89.740559   -0.8591841 -0.030074591  -0.04133599  0.024165685 -0.0014171993  0.004860234   0.82464617    14714.842   -962735.65   -948020.81     111219.1   -342909.16   -738493.21   -970183.27    2872.7841    4019.9095     554.9216    7447.6151    3061.4185    336134.69   0.83460457   0.97239049    4.3832225 
     -0.0365 0.0017171525  0.020235027     3650    300.15045    60.057104    62.335749     89.73478  -0.89243093 -0.093268965  0.036202485 -0.0079947212 0.0080310148 0.0026658186   0.87137702    14729.306   -962727.02   -947997.71    111393.22   -343050.24   -738499.33   -970156.34    2894.4259    3973.4473    561.45361    7429.3269    3123.6036    335940.51   0.84268094   0.98535093    4.3814674 
      -0.037 0.0021323923  0.020437505     3700    299.77875    60.025938    62.361589    89.752589  -0.88225383 0.0054668822 -0.029410116 -0.011528449  0.011910669  0.017571334   0.87181076    14711.065   -962703.45   -947992.38    111390.01   -343108.65   -738515.36   -970233.99    2885.4465    4057.3521    587.74869    7530.5473    2981.1565    335972.02   0.85929919    1.0051241    4.3970122 
     -0.0375 0.0028340978  0.020924798     3750    299.71245    59.994771    62.405256    89.795449   -0.8681784  0.014090889 -0.047773036 -0.022138526 0.0034816809 0.0013568265   0.85390739    14707.812   -962726.46   -948018.64    111182.43   -342939.26   -738496.48    -970253.3    2905.1797    4072.0924    549.57552    7526.8476    2966.8905    336193.18   0.88702834    1.0316348    4.4257026 
      -0.038 0.0035494497   0.02157926     3800    295.43598    59.963605    62.449771    89.853012  -0.88229744 -0.013292454  0.016168143 -0.0020689064 -0.027557035 0.0037942601   0.88542261    14497.952   -962527.36   -948029.41    111002.31    -342572.4   -738483.24   -970053.32    2940.3803    4011.7247    573.85684    7525.9619    2893.0726    336473.78   0.92154215    1.0626519    4.4681305 
     -0.0385 0.0040731229  0.022219451     3850    299.49811    59.932439    62.482359     89.90932   -0.8822321  0.034947669  0.017038825  0.013118103 -0.0071512206 -0.0015056132   0.90873005    14697.293   -962698.56   -948001.26    110954.55    -342546.5    -738478.8   -970070.76     2878.301    3937.9706    555.93287    7372.2045    2731.2957    336685.25   0.95525843    1.0935016    4.5112931 
      -0.039 0.0043136148  0.022603574     3900    300.42541    59.901273    62.497324    89.943106   -0.9012929  0.053190833  0.055201407 -0.010545243 -0.013517092 0.0047443741   0.95598722    14742.799   -962696.77   -947953.97    110658.62   -342264.99   -738494.92   -970101.28    2893.0157    3973.8057    537.68477    7404.5062    2608.4404    336717.24   0.98052997    1.1163406      4.53319 
     -0.0395 0.0039976193  0.022560093     3950    301.46154    59.870107     62.47766    89.939281  -0.90545277  0.012205094 -0.0079619516 0.0021849763 -0.015584953  -0.02522007    0.9092015    14793.645    -962720.3   -947926.66    110840.06   -342459.18   -738493.33   -970112.45    2937.5849    3916.2392    538.32061    7392.1447    2964.7492    336421.86   0.99060347    1.1257762    4.5463684 
       -0.04 0.0032930291  0.022178571     4000     299.5454    59.838941    62.433814    89.905724  -0.94494575 0.0030227497  0.017551577  0.014726529 -0.0070185478  0.017726799   0.95622662    14699.614   -962602.08   -947902.47     111465.1   -342974.58   -738493.41   -970002.89    2831.8297    4009.4623    559.51918    7400.8111    3040.9455    335885.39   0.98811326    1.1252903    4.5677606 
     -0.0405 0.0027214789  0.021817645     4050    300.35426    59.807775    62.398248    89.873979   -0.9548355 -0.023663033 -0.038613939 -0.023738637 -0.0046394745 -0.0021453122    0.9247447    14739.308   -962611.09   -947871.79    111970.02   -343517.57   -738518.57   -970066.13    2860.9422    4040.3358    553.75788    7455.0358    3346.0399    335400.73   0.98720641    1.1259914    4.5809074 
      -0.041 0.0026292874  0.021810135     4100    300.66024    59.776609    62.392511    89.873319   -1.0266541 -0.040884618 -0.058584783  0.028849638  0.015717114 -0.0054835137    0.9787414    14754.323   -962611.39   -947857.07    112051.19   -343629.02   -738487.29   -970065.12    2867.6767     4011.395    574.65616    7453.7279    3704.6584    335192.67    1.0002467    1.1362509    4.6052644 
     -0.0415 0.0029112267  0.022284517     4150    299.51929    59.745443    62.410055    89.915043  -0.95060695 -0.0076199386 -0.027440266 -0.010875013  -0.01487301 0.0050001999   0.93382036    14698.333   -962545.03    -947846.7    112067.84   -343586.68   -738505.19   -970024.03    2885.2714    4034.6098     559.1159    7478.9971    3242.5928    335267.69    1.0285208    1.1605001    4.6511809 
      -0.042 0.0034615938  0.023139215     4200    302.67916    59.714276    62.444304    89.990218   -1.0380647 -0.040668278 0.0017415955 0.0056972934  0.013222332 -0.0033680661     1.019585    14853.397   -962707.35   -947853.95    111856.65   -343490.33   -738508.24   -970141.92    2890.5069     3942.377     601.6877    7434.5716     3543.026       335557     1.066724    1.2006327    4.6946612 
     -0.0425 0.0041568709  0.024019409     4250    299.15011     59.68311     62.48757    90.067635   -1.0012643 -0.011781803   0.02169914 0.0021769119 -0.0033706968 -0.0012024289    1.0066668    14680.216   -962557.06   -947876.84    111566.92   -343094.67   -738488.37   -970016.11    2868.9643    4014.8347     575.2561    7459.0552    3261.2779    335902.97    1.1060992    1.2474055    4.7321523 
      -0.043 0.0046983832  0.024641049     4300    297.91427    59.651944    62.521268    90.122312  -0.93515787  0.032369542  0.018225579 -0.0015717352 0.0076465936 -0.0037317715   0.96065044     14619.57   -962485.48   -947865.91    111358.65   -342840.91   -738467.56   -969949.83    2915.1326    3962.1049    587.10892    7464.3464    2909.9852    336112.53    1.1409269    1.2857939    4.7728093 
     -0.0435 0.0048478635  0.024836257     4350    300.97346    59.620778     62.53057    90.139481   -1.0003441  0.038576229   0.03367304 -0.0078481331 -0.0029590754 -0.0015213432    1.0365826    14769.694    -962608.2    -947838.5    111334.94   -342882.38   -738471.51   -970018.95     2885.133    3933.1203    592.49601    7410.7494    3053.1946    336050.92    1.1643822    1.3071792    4.7894492 
      -0.044 0.0046650615   0.02463029     4400    301.00615    59.589612    62.519195    90.121365   -1.0400139 0.0092100536 -0.0048218061  0.020009597 0.0057854858 0.0082184183    1.0430002    14771.297   -962600.15   -947828.85    111726.38   -343337.01   -738498.88   -970109.51    2885.1067    4037.1275     587.1273    7509.3616    3406.9435    335746.66    1.1737863    1.3153765     4.797523 
     -0.0445 0.0044061101  0.024279042     4450    298.24739    59.558446     62.50308    90.090471   -1.0413196  0.012792821 -0.046735961 -0.012694346  0.016951177 -0.015612612    1.0266564    14635.917   -962466.15   -947830.23    112326.72   -343683.57   -738489.15      -969846    2884.8035    3926.8051    568.24512    7379.8538    3537.3395    335369.56    1.1780834     1.319849    4.8120123 
      -0.045 0.0042918804  0.024106077     4500    299.75797     59.52728    62.495972    90.075258   -1.0767897 -0.038203051 0.0026464472 -0.012360753 -0.025854219 -0.021900308     1.061442    14710.046   -962515.82   -947805.77    112369.78      -343782   -738491.47   -969903.69    2866.5632    3930.9091    590.39835    7387.8706    3659.3348    335099.35    1.1884963    1.3292441    4.8202687 
     -0.0455 0.0044253533  0.024144696     4550    300.14891    59.496114    62.504278    90.078655    -1.092751 -0.045431869 -0.021282976  0.021142513 -0.0041748314 0.0045521979    1.0602866     14729.23   -962498.46   -947769.23    112380.25   -343839.81   -738497.97   -969957.53    2834.3301    4022.3852     602.3549    7459.0702    3814.3462    334981.04    1.2039135    1.3465483    4.8458268 
      -0.046 0.0047866522  0.024404728     4600    299.41547    59.464948    62.526761    90.101526   -1.0892825  0.038036104 -0.010552125 -0.0075529527 0.0031907079 0.0055846241    1.1039605    14693.238   -962442.81   -947749.57    112487.65   -343821.41   -738491.32   -969825.07    2872.4132    3963.1687    546.67981    7382.2617    3493.0455    335011.04    1.2252094    1.3725306    4.8907493 
     -0.0465 0.0052061368  0.024803114     4650    301.40747    59.433781    62.552865    90.136566    -1.134345 -0.031125071  0.019460189  0.032943773 0.0021068118  0.017867058    1.1312323    14790.991   -962526.34   -947735.35    112201.04   -343569.08   -738490.63   -969858.68    2851.5616    3965.6075    515.16759    7332.3367    3770.0793    335105.52    1.2528259    1.4041654    4.9297365 
      -0.047 0.0054884955  0.025191176     4700    302.33874    59.402615    62.570436    90.170698   -1.0933146  0.043993227 -0.0059330995  0.010524729  0.016259688 -0.025093096    1.1145378    14836.692   -962567.03   -947730.34    112031.64   -343537.39   -738490.95    -969996.7    2882.1751    3967.2882    580.20679    7429.6701    3471.5172    335150.74    1.2845259    1.4371197    4.9453891 
     -0.0475 0.0054342395  0.025558315     4750    299.12118    59.371449     62.56706     90.20299   -1.1359312    0.0573466  -0.04617672 -0.029596081 -0.0026954621 -0.0049618301      1.14622    14678.796   -962421.51   -947742.72    112488.19   -343788.88   -738492.01    -969792.7     2860.668    3948.2382    562.27653    7371.1828    3700.1771    335076.78     1.318792     1.468394    4.9616902 
      -0.048 0.0051156693  0.026039353     4800    302.17168    59.340283    62.547235      90.2453   -1.1769852 -0.011227807 0.0020194932 -0.020550983  0.013673696 0.0098258196    1.1733399    14828.494   -962563.62   -947735.12    112592.67    -344030.5   -738494.05   -969931.87    2855.3693    3940.0477    572.83992    7368.2569    3902.2731    334951.81    1.3566342    1.5012213    5.0020071 
     -0.0485 0.0047978201  0.026564501     4850    300.57329    59.309117    62.527456    90.291489   -1.1617471 -0.038510915 -0.0037284397  0.012794273 -0.016198872 -0.0013045433    1.1415873    14750.056   -962478.44   -947728.38    112809.76   -344216.19   -738502.56   -969908.99    2859.8333     3996.321     574.3931    7430.5474    3960.8073    334841.31    1.3934045    1.5378546     5.048212 
      -0.049 0.0047035908  0.027189297     4900    299.55459    59.277951    62.521592    90.346443    -1.176557  0.050463049  -0.03168637 -0.037407317 0.00026260029   0.01826239    1.1902632    14700.065   -962438.19   -947738.13    112838.41   -344188.61   -738494.21   -969844.41    2831.7163    3982.6142    591.88526    7406.2158    3808.8013    334837.64    1.4328383    1.5805901    5.0790902 
     -0.0495 0.0047428036  0.027983432     4950    299.54586    59.246785    62.524032    90.416291   -1.1555225 -0.065509174  -0.01869126 0.0015608386  0.001654744 -0.012287793    1.1143705    14699.637    -962431.4   -947731.76    112672.79   -344016.66   -738492.46   -969836.33    2892.6252    3918.7718    593.53632    7404.9333    4078.3714     334933.4    1.4795438    1.6283181    5.1340498 
       -0.05  0.004888511  0.028801217     5000    301.43872    59.215619      62.5331    90.488219   -1.1828877  0.012614542  0.029014681 0.0059242575 -0.019664324 0.00082824763    1.2043124    14792.525    -962514.4   -947721.88    112592.97   -343907.95   -738499.82    -969814.8    2866.8144    3851.2772    582.30221    7300.3938    3754.4484     335072.1    1.5259898    1.6786666    5.1965725 
     -0.0505 0.0050584701   0.02944425     5050    301.11339    59.184453    62.543676    90.544777   -1.2066968  0.033194712 0.0057932522 -0.039652991  0.003767116  0.012007346    1.2285353     14776.56   -962476.04   -947699.48    112630.56   -343939.62   -738485.98   -969795.04    2838.2334    3930.6661    550.10834    7319.0079    3841.4633    335161.74    1.5625093    1.7263131    5.2313742 
      -0.051 0.0051476014   0.02976886     5100    300.52849    59.153286    62.549222    90.573328   -1.1592195 -0.0096291263  0.019923744  0.032152241 -0.0072566045 -0.016384262    1.1663918    14747.857   -962435.79   -947687.94    112591.46   -343893.32   -738483.38   -969785.23    2875.1063    3907.8176     566.5156    7349.4395     3779.669     335120.6    1.5862075    1.7604184    5.2334183 
     -0.0515 0.0052473602  0.029795154     5150    301.79324     59.12212     62.55543    90.575641   -1.1776746 -0.028352465  0.010096211 -0.012569095   0.01020495 0.0068489019    1.1694172    14809.923   -962490.82   -947680.89    112683.36   -344055.65    -738474.2   -969846.48    2831.5093    3929.4817    594.67426    7355.6653    3934.3066    334985.83    1.6015915    1.7793419    5.2671491 
      -0.052  0.005482887  0.029689223     5200    300.43164    59.090954    62.570087    90.566324   -1.2268336  0.029572662 0.0076930541 -0.019439263 -0.0038070194 -0.0018022162    1.2460869    14743.105   -962429.89   -947686.79    112903.99   -344234.52   -738489.64   -969820.17    2867.6365    3975.1375    547.50798     7390.282    3913.3741    334853.24    1.6153073    1.7934878     5.307672 
     -0.0525 0.0058291016  0.029638606     5250    301.21203    59.059788    62.591631    90.561872   -1.2617149  -0.03114322 -0.013740008 -0.036609876 -0.021145937 0.0052476416    1.2415597    14781.401   -962490.47   -947709.07     113093.6   -344396.22   -738495.73   -969798.36    2821.1155    3894.9099    591.86358     7307.889    4298.3737    334775.41     1.633569    1.8124158    5.3259747 
      -0.053 0.0062846131  0.029730957     5300    300.89753    59.028622    62.619977    90.569995   -1.1759917 -0.022983393 -0.032914371  0.023391274  0.026578717 0.0065673049    1.1497679    14765.967    -962480.6   -947714.63    112987.99   -344334.32   -738500.41   -969846.73    2883.8972    3911.7419    570.49668    7366.1358    4052.6011     334780.3    1.6603172     1.838535    5.3439148 
     -0.0535  0.006641942  0.029954456     5350    297.98142    58.997456    62.642214    90.589652   -1.2501617  0.043657192   0.01835828 -0.023147278 -0.011943567 -0.0086192917    1.2822376    14622.865   -962344.22   -947721.35    113010.01   -344210.08   -738489.21   -969689.28    2849.1065    3948.4344    547.51719    7345.0581    3908.6972    334795.01    1.6913213    1.8704744    5.3861238 
      -0.054 0.0067607358  0.030277621     5400    300.47613     58.96629    62.649606    90.618076   -1.3514573 -0.0098431451 0.00078894235 -0.0082124938 -0.0085497779 -0.017579151    1.3474622    14745.288   -962451.49    -947706.2    113173.76   -344387.23   -738486.01   -969699.48    2829.1785    3853.3034    565.50944    7247.9914    4475.7349    334762.64    1.7214283    1.9083273    5.4054775 
     -0.0545 0.0066475984  0.030779599     5450    299.67024    58.935124    62.642566    90.662228   -1.2516998  0.023436552 -0.032648722 0.0078517449 -0.017777938 -0.026899524    1.2493621     14705.74   -962383.15   -947677.41    113267.52   -344528.02   -738471.87   -969732.37    2871.5543    3898.5357    579.12642    7349.2164    4148.0777    334711.11    1.7568326    1.9517428    5.4396611 
      -0.055 0.0064207679  0.031448186     5500    300.73511    58.903957     62.62845    90.721034    -1.282692  0.035832475 -0.028272223 0.0052271064 -0.0039670981 -0.002394444    1.2877262    14757.997    -962416.2    -947658.2    113139.17   -344328.89   -738461.11   -969650.83    2790.4893    3901.1835     542.9563    7234.6291    4194.8572    334675.66     1.800551    1.9991448    5.4895505 
     -0.0555 0.0060302416  0.032028662     5550    299.10026    58.872791    62.604148    90.772089   -1.3201019  0.020274492   0.02395306 -0.0025783006 -0.027459914 -0.016091769    1.3433585     14677.77   -962323.47    -947645.7    113319.44      -344548   -738477.55   -969706.11    2882.3834    3933.7629    566.48727    7382.6336    4197.3003    334556.96    1.8411365    2.0422673    5.5253658 
      -0.056 0.0056371345   0.03247045     5600     301.1506    58.841625    62.579686    90.810947   -1.3588401 -0.055176277 -0.022762357 0.0071588568 -0.0044086539 -0.022077279    1.3208033    14778.386   -962410.56   -947632.17    113709.51   -344899.85   -738488.84   -969679.18    2835.6941    3866.1941    566.73511    7268.6232    4726.6347    334392.28    1.8753092    2.0791281    5.5590998 
     -0.0565 0.0055365087  0.032869222     5650     303.1987    58.810459    62.573424    90.846021   -1.3016927  0.010781093  0.016128322 -0.011191438 -0.020798912 0.0094102151    1.3158926    14878.893    -962495.1   -947616.21    113654.28   -344931.98   -738466.51   -969744.21    2806.0901    3887.9595    555.05867    7249.1083     4193.711    334310.79    1.9095667    2.1125345    5.5983727 
      -0.057 0.0056695547  0.033184688     5700    303.36001    58.779293    62.581703    90.873768   -1.3810954 -0.063259598 -0.013473411  0.019220064 -0.0063347274 0.0030378838    1.3438884    14886.809   -962510.98   -947624.18    113582.12   -344856.88   -738475.22   -969749.98    2814.9424    3864.8798    559.17468    7238.9969    4795.8825     334279.9    1.9437681     2.143834    5.6185728 
     -0.0575 0.0059758675  0.033383701     5750    302.05383    58.748127    62.600765    90.891272   -1.3193527  0.026416045 6.9331714e-05 0.0069069624 0.0012929393 -0.0092765154    1.3329431     14822.71   -962486.87   -947664.16    113723.18   -345021.61      -738478   -969776.43    2839.5436    3887.7106    562.30083     7289.555    4253.2028     334268.8    1.9743176    2.1730042    5.6568321 
      -0.058 0.0064969696  0.033593746     5800    298.74204    58.716961    62.633192    90.909746   -1.3941936  0.013979065 -0.016875381 -0.017010348 -0.020711853  0.002205489    1.3937803    14660.191   -962346.46   -947686.27    113853.31   -344939.84   -738457.83   -969544.36    2745.3221    3899.1054    553.47256    7197.9001    4596.0685    334332.47    2.0040457    2.2045908    5.7198254 
     -0.0585 0.0071124592  0.033798643     5850     298.5035    58.685795    62.671493    90.927768   -1.3632622 -0.048019616   0.04335867 0.0038745855 0.0044051555 -0.0066569298    1.3633172    14648.485   -962314.21   -947665.72    113562.92   -344706.06   -738480.28   -969623.41    2847.6003    3889.4005    572.20054    7309.2013    4500.1173    334425.64    2.0322198    2.2378055    5.7408259 
      -0.059 0.0075900278  0.033825883     5900    301.17173    58.654629    62.701212    90.930164   -1.4139967 0.0090322493 -0.0066626589  0.019614131 -0.019340236 -0.018210266    1.4164019    14779.423   -962421.25   -947641.83    113397.43   -344628.67    -738469.3   -969700.54    2812.6698    3892.6509    573.97066    7279.2913     4643.892    334415.35    2.0544487    2.2626895    5.7637196 
     -0.0595 0.0076298934  0.033689448     5950    301.07798    58.623462    62.703693    90.918164   -1.3671954   0.09619129 -0.0049051841  0.010735546  0.012332097  0.021256032    1.4163104    14774.823    -962409.1   -947634.28    113654.97   -344802.01   -738466.74   -969613.78    2803.0463     3848.075     553.5558    7204.6771    4197.4151    334206.77    2.0699643    2.2767723    5.8047913 
       -0.06 0.0073508831  0.033615373     6000    299.99256    58.592296     62.68633    90.911649   -1.4540084 -0.037918183 -0.036085665  0.011688446 0.00032736668  0.019262568    1.4175447    14721.557   -962354.15    -947632.6    114069.29   -345187.49   -738454.79   -969572.98    2829.7487    3844.8085    544.27241    7218.8296    5026.7694    333912.67    2.0870902    2.2935352    5.8334659 
     -0.0605 0.0072248801  0.033949265     6050    300.41832     58.56113    62.678489    90.941016   -1.4016742 -0.039712733 -0.016579687 -0.0076842606 0.0070211198 0.0085195329    1.3738717    14742.451    -962365.7   -947623.25    114296.89   -345423.74   -738475.85    -969602.7    2816.8966    3842.2051    577.89797    7236.9997    4796.3374    333801.11    2.1230794    2.3298862    5.8445499 
      -0.061 0.0074197993  0.034646977     6100    303.44244    58.529964    62.690619    91.002383   -1.4341768  0.017221993 -0.027423648  -0.01477795 -0.026786068 -0.019424174    1.4309761    14890.854   -962510.41   -947619.56    114215.73   -345416.36   -738471.15   -969671.78    2736.5202    3869.6022    555.24779    7161.3701    4751.6357    333913.19    2.1785437    2.3815495    5.8855258 
     -0.0615 0.0078128672  0.035468724     6150     299.6503    58.498798    62.715079     91.07466   -1.4653179 -0.052685896 0.0093905354 0.0082439431 -0.0083967646  0.020195221    1.4452379    14704.762    -962336.2   -947631.44    113938.49   -345054.54   -738464.73   -969580.78    2783.9002    3872.9514    587.72153    7244.5731    4962.9517    334130.77    2.2408101    2.4371884    5.9449712 
      -0.062  0.008330035  0.036113682     6200     302.5276    58.467632    62.747262    91.131387   -1.3974039 -0.0062509263  0.033877596 -0.002273361  0.010664275  0.002502554    1.4117781     14845.96   -962476.92   -947630.96    113647.75   -344787.34   -738449.22   -969588.81    2762.9034    3801.7502    547.23961    7111.8933    4506.2168    334332.24    2.2927322     2.486083    6.0015367 
     -0.0625 0.0087863526  0.036254537     6250    299.00794    58.436466    62.775658    91.143776   -1.4397863   0.05160191  0.056438535 0.0099071323 -0.023648145 0.0014863648    1.4944745    14673.239   -962301.83   -947628.59    113902.57   -344958.42   -738466.46   -969522.32    2778.7491    3865.3591    576.37814    7220.4864    4381.1031     334350.7    2.3195356    2.5132226     6.025009 
      -0.063 0.0090848367  0.035855173     6300    298.67916      58.4053    62.794232     91.10865    -1.521847 -0.039519963  0.021356783 0.0083025609  0.018673466 -0.011040053    1.5142183    14657.105    -962257.9   -947600.79    113909.52    -344898.1   -738449.39   -969437.97    2810.1969    3807.4805    562.39549    7180.0729    5066.2395    334142.43    2.3214939    2.5126283    6.0277679 
     -0.0635 0.0091581651  0.035182703     6350     302.7152    58.374134    62.798795    91.049503   -1.4845159  0.038760248 -0.0094020947 -0.0065554056  0.021351376 -0.011142266    1.5003981    14855.166   -962420.39   -947565.22    114179.08   -345289.73   -738472.43   -969583.08    2773.0959    3836.4896    553.10807    7162.6936    4787.0969    333771.57    2.3075364     2.501008    6.0274626 
      -0.064 0.0090461982  0.034656932     6400    296.36188    58.342967    62.791828    91.003259   -1.5143809 0.0062975364 -0.048449406 0.00095675868 -0.0065543833  0.009190485    1.4941862    14543.389   -962093.13   -947549.74    115028.86   -345890.99   -738467.32   -969329.44    2825.1938    3849.5071    561.61162    7236.3125    5120.5945    333386.94    2.2981607     2.499789    6.0235888 
     -0.0645 0.0091273166  0.034631307     6450    299.96432    58.311801    62.796876    91.001005   -1.5862785 -0.049610984 -0.0095173082  0.020639355 -0.0056410593 -0.0091763122    1.5576235    14720.172    -962221.9   -947501.73     114911.9   -345875.17   -738466.82   -969430.09    2769.3014    3876.1953    562.69186    7208.1886    5412.9674    333227.38    2.3180586    2.5188679    6.0150076 
      -0.065 0.0094354676  0.034966588     6500    302.02868    58.280635    62.816052    91.030495    -1.582197   0.02401307   -0.0672366 -0.0073163701 0.0060223091 0.0086425189    1.5627426    14821.476   -962275.54   -947454.07    114661.65   -345656.34   -738471.85   -969466.54    2803.5445    3828.7257    558.72349    7190.9937    5347.2178    333258.94    2.3600474    2.5510944    6.0446245 
     -0.0655 0.0096598313  0.035489864     6550    300.12778    58.249469    62.830014    91.076519   -1.5105553  0.044743993  0.023975044 -0.012725872 -0.0038773176 -0.00078845906    1.5451919    14728.194   -962182.62   -947454.43    114810.71   -345747.08   -738462.18   -969398.56     2843.991    3836.1441    535.80454    7215.9397    4743.2724    333323.21    2.4062998    2.5973312    6.0911605 
      -0.066 0.0097805313  0.036160591     6600    301.01024    58.218303    62.837525    91.135513   -1.5861402 -0.066016316 -0.0083081956 -0.0066961789 0.0086971719  0.020210755    1.5502958    14771.498   -962237.76   -947466.26    114733.63   -345651.79   -738468.56   -969386.73    2802.2297    3778.4461    568.29577    7148.9716    5462.5042     333400.5    2.4551334    2.6584332    6.1420918 
     -0.0665 0.0098150992  0.036892559     6650    298.87186    58.187137    62.839676    91.199893   -1.6064461  0.060900065 -0.061222135  0.013399407 0.00074033797 -0.016151004    1.6101738    14666.562   -962124.17   -947457.61    114823.57    -345687.7   -738450.16   -969314.29    2776.3228    3849.0862    564.71302    7190.1219    5285.8562    333468.84    2.5115351    2.7222151    6.2135181 
      -0.067 0.0096420101  0.037614212     6700    303.03282    58.155971    62.828905    91.263366   -1.6095779  0.037405721   0.04869939  0.006440189 -0.013014521 -0.021073933    1.6532537    14870.753   -962302.74   -947431.99    114887.78   -345781.59   -738469.58   -969363.38    2711.9328    3791.1058    557.60654    7060.6452    5011.8357    333465.02    2.5726594    2.7800074     6.287183 
     -0.0675 0.0093412984  0.038116176     6750    302.09608    58.124805    62.810192    91.307517   -1.5924415 -0.061519762  0.032375134 -0.042786951 0.0076297814 -0.0068170215    1.5817995    14824.784    -962242.5   -947417.72    114931.49   -345826.13   -738462.11   -969356.76    2718.5525    3799.9169    595.78433    7114.2537    5334.6036    333348.23    2.6233117    2.8258031    6.3085331 
      -0.068 0.0091690516   0.03833175     6800     298.8557    58.093638    62.799473    91.326477   -1.6935083  0.019425702   -0.0371261  0.019157554 -0.013896048 -0.012535142     1.686008    14665.768   -962064.78   -947399.01       115178   -345898.54   -738467.68   -969188.21    2728.5701    3839.1755    555.69275    7123.4384    5629.4388    333181.81    2.6595912    2.8578724    6.3412888 
     -0.0685 0.0091426613  0.038447332     6850    302.19674    58.062472    62.797831    91.336643   -1.6446835 -0.012753127  0.064727942  -0.02459311 -0.0043494794 -0.011770736    1.6727015    14829.724   -962198.81   -947369.09    115286.12   -346078.92   -738459.46   -969252.26    2739.0436    3770.8126    543.58824    7053.4444     5239.604    333031.42    2.6915172    2.8854544    6.3964014 
      -0.069 0.0092294558  0.038538295     6900    302.42039    58.031306    62.803232    91.344644   -1.6918717 -0.020645367 -0.036609469 0.0042214297  0.019704411 0.0013682676    1.6636696    14840.699   -962188.26   -947347.56    115433.55   -346295.58   -738458.02   -969320.05    2765.1289    3774.5626    592.09694    7131.7884    5754.1789    332910.45    2.7207335    2.9172641    6.4482884 
     -0.0695  0.009527656  0.038829284     6950     300.2712     58.00014    62.821788    91.370238   -1.6664295 -0.019112779 -0.053761801 -0.013348403 -0.029250732  0.013136426     1.631378    14735.231   -962072.79   -947337.56    115628.92   -346370.26   -738462.09   -969203.43    2737.8834    3826.3537    566.40885    7130.6459    5721.8655    332923.23    2.7572285    2.9647854    6.5052921 
       -0.07 0.0099805719  0.039378379     7000    297.35326    57.968974    62.849973    91.418534    -1.681505 0.00085040284  0.030359713 -0.012548658 -0.0090804735 0.00085589655    1.6975151    14592.039    -961908.1   -947316.06    115529.24   -346151.64   -738462.13   -969084.54    2758.6604    3860.4862    557.29608    7176.4427    5429.0479    333069.57    2.8063782    3.0249362    6.5504543 
     -0.0705  0.010415298   0.03996925     7050    297.90409    57.937808    62.877025    91.470504   -1.6867973 -0.018600492 0.0042773359 -0.023423046  0.013612973 -0.0039565393    1.6804218     14619.07   -961890.35   -947271.28     115393.7   -346007.74   -738434.88   -969048.91    2823.3466    3785.7626    549.45381     7158.563    5596.2512    333223.11    2.8622728    3.0807567    6.6015114 
      -0.071  0.010664551  0.040567297     7100     297.4242    57.906642    62.892536    91.523105   -1.7164268  0.048384782 -0.020898151    0.0115259 -0.013382681 -0.0018128132    1.7314833     14595.52   -961791.57   -947196.05    115439.73   -345987.84   -738450.84   -968998.95    2808.0045    3798.4589    600.91372    7207.3771    5556.1812    333317.59    2.9222761    3.1319052    6.6504416 
     -0.0715  0.010613763  0.041115641     7150    303.93368    57.875476    62.889376    91.571335   -1.7298919 0.0022910059  0.026936207  -0.02925655  0.018146263 0.0059636757    1.7456854     14914.96   -962048.23   -947133.27    115412.36   -346074.46   -738465.62   -969127.72    2753.0658    3749.9605    576.46042    7079.4868     5594.752       333297    2.9794227    3.1793126    6.7036715 
      -0.072  0.010336323   0.04150598     7200    301.25731     57.84431    62.872111    91.605667   -1.7003935 -0.012129589 -0.014153005 -0.011758748 0.0037621221 0.00082517514    1.6873893    14783.623   -961898.92    -947115.3    115644.32   -346237.69   -738459.23    -969052.6    2798.0965    3800.3048    555.27708    7153.6784    5680.3228    333150.93    3.0255241    3.2202548    6.7248508 
     -0.0725  0.010008135  0.041909162     7250    303.71422    57.813143    62.851688    91.641129   -1.8076204  0.010072279 -0.010684801  0.018594351 0.0051304151   0.01849288     1.807996    14904.191   -962018.66   -947114.46     115957.5   -346526.31   -738469.14   -969037.95    2714.7854    3750.5114    553.99482    7019.2916    5948.6238    332992.12    3.0680899    3.2637418    6.7728829 
      -0.073 0.0097881856   0.04243925     7300    299.55114    57.781977    62.838001    91.687753   -1.7836733  -0.01649814 -0.0035806735 -0.011698488 -0.020366493 -0.0031289773     1.774144    14699.896   -961816.59    -947116.7    116175.74   -346663.18   -738451.68   -968939.12    2739.9692    3826.2953    556.26107    7122.5255    5933.8832    332909.42    3.1132053    3.3149202     6.849744 
     -0.0735 0.0098389565  0.043065031     7350    302.01305    57.750811     62.84116    91.742793   -1.7997541 -0.027886712 -0.016130144 -0.008636332 0.0090147814 -0.016065267    1.7781241    14820.709   -961926.68   -947105.97    116047.76    -346504.8   -738464.73   -968921.78    2719.4223     3721.076    554.59513    6995.0934     6065.535    332946.34    3.1609042    3.3757902    6.9167421 
      -0.074  0.010006518  0.043704434     7400    298.38558    57.719645    62.851587    91.799032   -1.8107859  0.033805523 -0.021047435 -0.0020166527 -0.0026258112  0.041012764    1.8191822    14642.698   -961712.52   -947069.82    116115.15   -346502.26   -738443.14   -968830.25    2740.9623    3812.0142    564.74892    7117.7254    5915.0515     333025.9    3.2140196    3.4381827    6.9797289 
     -0.0745  0.010077725  0.044336074     7450    298.54621    57.688479    62.856019    91.854588   -1.8242038 -0.021792568  0.029273423 0.0027374333 -0.0041622609 -0.010344366    1.8285873    14650.581   -961667.23   -947016.65    116285.03   -346671.51   -738453.03   -968839.51    2779.3852    3847.7597    545.13363    7172.2785    5976.5539    333070.99    3.2778117    3.4948094    7.0407825 
      -0.075  0.010237225  0.044864439     7500    298.16629    57.657313    62.865944     91.90106   -1.8509898 -0.016769098 0.0043916808 -0.011145919 -0.008589056 -0.023700973    1.8455097    14631.937   -961584.05   -946952.11    116234.16    -346544.5   -738449.02   -968759.36    2815.8831    3808.4664    550.95461    7175.3042    6130.0015    333112.06    3.3429286    3.5439591    7.0698621 
     -0.0755  0.010511869  0.045236477     7550    301.28168    57.626147    62.883035    91.933783   -1.8300094  0.053381586  0.021463945  0.034593866 9.6621133e-05 0.0070430867    1.8686375    14784.819   -961677.75   -946892.93    116236.13   -346585.19   -738439.45   -968788.51    2792.7931    3772.3355    545.63237     7110.761    5774.0402    333141.09    3.3963031    3.5874834    7.1108957 
      -0.076  0.010721358  0.045480129     7600    302.55816    57.594981    62.896071    91.955213   -1.8854193 -0.030799624  0.016585764 -0.012904928 0.0049513141  0.015714073    1.8791103    14847.459   -961705.21   -946857.75    116255.38   -346529.51    -738450.7   -968724.83    2737.6037    3732.5445     549.4707    7019.6188    6249.3073    333107.58    3.4329857    3.6287148    7.1591329 
     -0.0765  0.010764831  0.045618034     7650     301.5068    57.563815    62.898776    91.967343    -1.855228 -0.0049406316 -0.0061582572  0.019490276 -0.019143075   0.02306847    1.8507153    14795.866   -961641.79   -946845.92    116378.54   -346644.85   -738435.48   -968701.79    2786.5949    3715.2748    558.12974    7059.9994     6139.738    332985.56    3.4563013    3.6658467    7.2130023 
      -0.077  0.010832401  0.045635155     7700    299.17071    57.532648    62.902981    91.968849   -1.8964604 -0.0082477426 -0.013162694 -0.018533828 -0.0060983125 0.0063568843    1.8860949    14681.227   -961507.22   -946825.99    116694.31   -346843.49   -738449.67   -968598.84    2735.9532    3813.2047    542.46343    7091.6214    6309.3046    332832.97     3.475588    3.6941962    7.2581023 
     -0.0775   0.01108198  0.045729265     7750    300.01035    57.501482    62.918512    91.977126   -1.8956254 -0.025851007  0.019391654 -0.0046205113 -0.0058908579 -0.0035472879    1.8928557    14722.431   -961509.74   -946787.31    116695.77   -346843.16   -738455.67   -968603.06    2752.5024    3794.7827    546.03786     7093.323    6257.3722    332764.75    3.5095065    3.7255826    7.2816549 
      -0.078  0.011372165  0.045853737     7800    301.15399    57.470316     62.93657    91.988074   -1.9686219 0.00060095966 -0.0032301795 -0.0042645383 0.0082079812 0.00010377365    1.9673753    14778.552   -961522.39   -946743.83     116568.8   -346783.09   -738450.71      -968665    2761.9409    3806.8231    573.84553    7142.6095     6484.912    332719.45     3.551244    3.7586867    7.2866213 
     -0.0785  0.011591542  0.045790798     7850    301.02193     57.43915    62.950222    91.982538   -1.9453889  0.054884388   0.02327288 -0.00060639251 -0.013267899  0.018779041    1.9850562    14772.072   -961492.72   -946720.64    116840.26   -346939.41   -738456.55   -968555.69    2737.9109    3755.3055    569.76222    7062.9787    6142.7145    332591.13    3.5829123    3.7785393    7.3194086 
      -0.079  0.011807506  0.045624822     7900    300.05156    57.407984    62.963661     91.96794   -1.9736071 -0.028256446 -0.011968871  0.012489983 -0.021687872 -0.024383969    1.9544827    14724.453   -961403.42   -946678.97     116984.7   -346966.47   -738461.65   -968443.42    2716.8094     3764.335    558.85575    7040.0001    6624.9937    332428.86     3.606657     3.795619     7.337993 
     -0.0795  0.012055061  0.045449799     7950    301.02437    57.376818    62.979066    91.952546   -2.0068994 -0.033675928 0.0030770788  0.005027895  0.011411789 0.0055002428    1.9919942    14772.192   -961402.76   -946630.57    117012.99   -346988.58   -738476.36   -968451.95    2710.5162    3783.6402    555.03422    7049.1905    6702.8482    332274.05    3.6259944    3.8195345    7.3407774 
       -0.08  0.012335584  0.045264577     8000    303.71937    57.345652    62.996523    91.936254    -1.987391  0.044746331   0.02341805 0.0075206272 -0.007744948  0.019785553    2.0219345    14904.444   -961492.09   -946587.65     116990.3   -347050.83   -738461.47   -968522.01    2728.3534    3730.9847    570.58091     7029.919    6313.7647    332126.77    3.6432898    3.8404084     7.370314 
     -0.0805  0.012598957  0.044997187     8050    301.84055    57.314486    63.012912    91.912736   -2.0197326 -0.0031631241 -0.014829455 -0.00091215699 -0.010875517  0.017508496    2.0110792    14812.244   -961399.98   -946587.74    117267.21   -347292.93   -738465.48    -968491.2    2751.7233    3777.1161    562.38368    7091.2231    6703.5945    331947.68    3.6538216    3.8534748    7.3920118 
      -0.081  0.012811186  0.044844021     8100    300.71963    57.283319    63.026119    91.899264   -2.0701866 -0.030607897 -0.060939593  0.022852135 -0.024500664 -0.0073761558    2.0254551    14757.237   -961351.87   -946594.63    117612.49    -347518.4   -738463.73   -968369.64    2732.1295    3716.0459     569.5989    7017.7743    7111.5523    331788.08    3.6696774    3.8736324    7.4152964 
     -0.0815  0.013017984  0.045042713     8150    298.31269    57.252153    63.038988     91.91674   -2.0619668  0.038061908  0.012411885 -0.019036173 0.0072997269 -0.0059688187    2.0876462    14639.121   -961197.64   -946558.52    117710.17   -347588.27    -738468.2    -968346.3    2817.7443    3773.2816    557.63271    7148.6587    6617.2976    331738.34    3.7091595    3.9123549    7.4596824 
      -0.082  0.013183375  0.045561385     8200    297.89415    57.220987     63.04928     91.96236   -2.1185617 0.0048601244 -0.020836778 -0.017022982 -0.0053995523  0.032705225    2.1116773    14618.582   -961142.41   -946523.82    117543.66   -347390.71   -738449.38   -968296.44    2797.1565    3764.1002     592.7715    7154.0282    7022.0854    331776.47    3.7692401    3.9679447     7.517044 
     -0.0825  0.013133444   0.04629237     8250    300.41669    57.189821    63.046173    92.026654   -2.0864095 -0.0065753672 -0.018560992  0.015848615 -0.0020749576 0.0089467349    2.0741099    14742.371   -961213.78   -946471.41    117575.08   -347430.83   -738459.79   -968315.54    2784.6145    3744.3174    572.82509     7101.757    6946.4457    331811.24    3.8397642    4.0345907     7.588955 
      -0.083   0.01281254  0.047199949     8300    298.43952    57.158655    63.026203     92.10648    -2.089999  0.078447341 -0.010396538 0.0079442447 0.0072368584  0.042883158    2.1267964    14645.345   -961079.54   -946434.19    117891.16    -347591.7   -738452.01   -968152.54    2766.4036     3744.852    561.74982    7073.0055    6651.6925    331812.95    3.9176838    4.1119035    7.6928469 
     -0.0835  0.012400605  0.048290126     8350     299.6995    57.127489    63.000569    92.202366   -2.1480166 -0.059697756 -0.026687105 -0.016050582 -0.011993537  0.010483437    2.1053827    14707.176   -961081.97    -946374.8    117922.27   -347583.38   -738439.27   -968100.37    2735.6813    3715.9865    566.72977    7018.3976    7350.6093    331842.25    4.0051387    4.2053265    7.7764313 
      -0.084  0.012156548  0.049393713     8400    302.85234    57.096323    62.985381    92.299433   -2.1042284 0.0025273738 0.0030767527 0.0088539877 0.0075546801  0.018316445    2.1073658    14861.896   -961173.37   -946311.48     117723.6   -347528.61   -738435.73   -968240.74    2760.2548    3733.6288     573.4875     7067.371    6903.9371    331930.33    4.0949842    4.3038385    7.8716685 
     -0.0845  0.011829698   0.05042359     8450    301.54434    57.065157    62.965042    92.390015   -2.1831803  0.053943969 0.0077161333  -0.01422039 -0.0052282518 -0.0086010326    2.2145779    14797.708   -961085.25   -946287.54    117923.14   -347535.83   -738458.11    -968070.8    2700.6151    3722.4637    562.47281    6985.5516    6979.2587    331967.49    4.1827326    4.3974689    7.9742694 
      -0.085  0.011400454  0.051518874     8500    301.19684    57.033991    62.938331    92.486351   -2.1649027 -0.043577601 -0.0080655002 -0.0019420165 -0.0074240412  0.022303086    2.1396923    14780.655   -961041.12   -946260.46    118154.52   -347776.94   -738446.63   -968069.05    2747.9139    3731.9055    548.11152    7027.9309    7291.8688    331991.24    4.2818758    4.4929053    8.0556136 
     -0.0855  0.011184772  0.052649003     8550    300.56071    57.002824    62.924909    92.585752   -2.1546931 -0.072842358  -0.05454353 -0.016125983 -0.014235075 -0.010570594    2.0914723    14749.438   -960979.86   -946230.42    118212.98   -347829.67   -738439.09   -968055.77    2749.8759    3756.3696    569.66606    7075.9116    7507.4563     332095.6    4.3922723     4.593106    8.1613753 
      -0.086  0.011173515    0.0537785     8600    300.55412    56.971658    62.924208    92.685097    -2.131015  0.076839351  0.036269919  0.017659005  0.041070248    0.0127083    2.1893322    14749.115      -960960   -946210.88    118099.85    -347707.3   -738426.96   -968034.41     2729.753    3741.2509    603.41308     7074.417    6638.3936    332266.48    4.5061837     4.698582    8.2635979 
     -0.0865  0.011095081  0.054744211     8650    297.81217    56.940492    62.919328    92.770036   -2.1858457 -0.043539539 -0.016700573 -0.0028155536 -0.0032139949  0.037643167    2.1568493    14614.559   -960792.09   -946177.53     117887.1   -347427.97   -738401.62   -967942.49    2770.1983    3790.5685    589.63403    7150.4008    7389.0478    332363.26    4.6083101    4.7947082    8.3598049 
      -0.087  0.010950607  0.055461086     8700    298.47993    56.909326    62.910337    92.833088   -2.1693915 -0.0091478762 0.0075086234 0.0083555923 -0.020710602 0.0065534026    2.1689945    14647.328   -960783.17   -946135.84    118105.13   -347534.49   -738412.77   -967842.12    2780.6666    3714.1737    564.11643    7058.9567    7142.1359    332359.62    4.6916267    4.8766806    8.4527014 
     -0.0875  0.010930204  0.055957528     8750    299.88686     56.87816    62.909067    92.876753   -2.1839757  0.024549956  0.048699352 0.0058716651  0.018193619  0.021015067    2.2212439    14716.371   -960793.61   -946077.24    118162.64   -347557.28   -738412.83   -967807.47    2716.8606    3749.1616    547.84016    7013.8624    6943.7498    332327.14    4.7587206     4.947681    8.5334903 
      -0.088  0.010994856  0.056118982     8800    299.14317    56.846994    62.913091    92.890954   -2.2243234 -0.041094044  0.007667454 -0.027748987 -0.0011669357 -0.020647899    2.2088274    14679.876   -960697.07   -946017.19    118218.95   -347603.24   -738424.99   -967809.28    2804.2264     3721.814    586.16654    7112.2069    7427.4199    332217.07    4.8015215    4.9961641    8.5624513 
     -0.0885   0.01118725  0.056035923     8850    302.15599    56.815828    62.925063    92.883648   -2.2292147 -0.032911374 -0.038723936  0.014847544  0.010135403 0.0047373599    2.1936391    14827.724   -960789.81   -945962.09    118363.67   -347731.29   -738422.17   -967789.79    2709.9587     3714.062    575.95599    6999.9767    7569.2079       332072    4.8297022    5.0257742     8.589898 
      -0.089  0.011488903   0.05599181     8900    299.91538    56.784662    62.943835    92.879768   -2.2264977  0.049875029  0.034474891  0.013815953  0.015477514 -0.0069256593    2.2690282     14717.77   -960638.51   -945920.74    118727.56   -347983.21   -738413.21   -967668.86    2734.1319    3729.3368    566.88255    7030.3513    7047.1183    331974.99    4.8627361    5.0575657    8.6610572 
[...]
     -0.2775  0.071919224   0.61403147    27750    302.97256    45.035036    66.704347    141.96215  -0.57461538 -0.016166883 -0.033062027 0.0057778417  0.013031995 -0.020151212   0.55185412    14867.795   -954477.28   -939609.48    113884.26   -338203.29   -736571.92   -960890.95    2316.4664    3437.5398    659.66164    6413.6678    2052.2881    426458.94    276.86866    283.10389    281.84638 
      -0.278  0.072729695   0.61507517    27800     299.1071     45.00387    66.754781    142.05395  -0.55701291  -0.01585838 -0.019366417 -0.005668495 0.0050394201 0.0015991244   0.53957613    14678.105      -954328   -939649.89    113984.83   -338170.03   -736529.31   -960714.51     2293.435    3414.2759    678.79893    6386.5098    1948.3106    426761.82    277.89756     284.1128    282.89903 
     -0.2785  0.073610351   0.61634652    27850    299.68904    44.972704    66.809584    142.16577  -0.54364633 -0.0076912445  0.020100715 -0.010985799 0.0099860299 0.0082058534   0.55116125    14706.663   -954360.02   -939653.36    113800.43   -338030.12   -736528.85   -960758.55    2334.5455    3411.7747    652.20536    6398.5256    1747.6334    427152.36    279.07224    285.36802    284.11437 
      -0.279  0.074596126   0.61725259    27900    299.64421    44.941538    66.870927    142.24546  -0.55788766 -0.023569323  0.031686729 -0.015077484 -0.0001111324 -0.012402205   0.56499302    14704.463   -954340.71   -939636.25    113470.41   -337696.23   -736509.15   -960734.96    2332.3319    3402.3668    659.55452    6394.2532    1808.6035    427487.78    279.96056    286.32806    285.22376 
     -0.2795  0.075652757   0.61747094    27950    301.78025    44.910372     66.93668    142.26467  -0.54004006 -0.020932088 0.0052585381 -0.0035412029  0.013913496  0.022093514   0.53463777    14809.285   -954437.67   -939628.39    113426.46   -337689.44    -736512.3   -960775.27    2274.0001    3409.4838    654.11849    6337.6024    1828.1557    427669.11    280.35318    286.69464    285.79665 
       -0.28  0.076656073   0.61728602    28000    302.20705    44.879206    66.999116     142.2484  -0.50951193  0.019091373 0.0023704468  0.023673424 -0.013822564   0.00822519   0.52279991    14830.229   -954485.58   -939655.35    113491.94   -337817.13   -736533.12   -960858.31    2379.3299    3338.1087    655.29776    6372.7363      1605.56    427722.05    280.45727    286.73837    285.78404 
     -0.2805  0.077528278   0.61704971    28050    296.94417     44.84804    67.053392    142.22762   -0.5524113 -0.018980995 8.5141821e-05 -0.0073136546  0.014130116 -0.010224473   0.54420118    14571.964   -954260.59   -939688.63    113721.47   -337866.06   -736540.49   -960685.08    2295.4907      3443.41    685.58943    6424.4902    1879.4544    427708.77     280.5016    286.75669    285.52582 
      -0.281  0.078306925   0.61699215    28100    299.31149    44.816873    67.101846    142.22256  -0.54442157 0.00098946478 -0.033805288  0.003007975 -0.003124836 -0.0088664652   0.52914904    14688.136   -954355.23    -939667.1    113713.95   -337902.66   -736539.45   -960728.16    2295.0697    3388.2786    689.57826    6372.9266    1898.9634    427705.18    280.65811    286.90778     285.5814 
     -0.2815  0.078949539   0.61735153    28150    299.33475    44.785707    67.141835    142.25417  -0.52613502 -0.004107406 -0.005680812 0.0074447569    0.0253579 0.0044849113   0.52330644    14689.277   -954320.64   -939631.36     113633.3   -337849.22   -736523.14   -960739.07    2306.4334     3441.498    670.49855      6418.43    1763.0504    427757.51    281.11717     287.3869    286.21445 
      -0.282  0.079542646   0.61806646    28200    301.20737    44.754541    67.178744    142.31705  -0.51521256 0.0070002629 -0.017137499 0.0078959729 -0.010561007  0.011082181   0.51144296    14781.172   -954386.01   -939604.84    113465.86   -337706.94   -736501.15   -960742.23    2309.8274    3375.3845    671.00723    6356.2191    1728.2664    427883.87    281.83513    288.17923    287.05125 
     -0.2825  0.080211435   0.61884665    28250    300.67114    44.723375    67.220362    142.38567  -0.53018663 -0.035547084 -0.0094231229  0.031138595  0.023985071  0.013030646   0.51324143    14754.857   -954352.16    -939597.3    113497.67   -337702.44   -736495.33   -960700.09    2296.7067    3349.0413    702.18523    6347.9333    1892.1189    428057.09    282.62263    289.03503    287.92633 
      -0.283  0.081014415   0.61969117    28300    301.37809    44.692209     67.27033    142.45995  -0.52114778 -0.0034112969 0.00096972537   0.02399832 0.0063060119  0.014219288   0.52229502     14789.55   -954402.43   -939612.88    113570.75   -337818.47    -736520.7   -960768.42    2306.8128    3400.5434    658.63725    6365.9934     1722.475    428300.09    283.51767    289.96636    288.76773 
     -0.2835  0.081957934   0.62058863    28350    301.98121    44.661043    67.329044    142.53889  -0.52239091 -0.016281776 -0.018429321  0.014617985 -0.0070008923  0.025988314   0.50781733    14819.147   -954454.24   -939635.09    113465.54    -337734.8   -736485.62   -960754.88    2286.6238    3330.9554    683.06104    6300.6402    1832.7231    428612.34    284.49179    290.97258    289.81108 
      -0.284  0.083015807   0.62147781    28400    300.94637    44.629877    67.394875    142.61709  -0.50392318 -0.010913325 -0.005167667  0.010964244 -0.013685574  0.013686321   0.49740212    14768.364   -954407.72   -939639.36    113474.14   -337747.19   -736489.49   -960762.55    2295.8205    3402.7783    656.22639    6354.8252    1710.6807    428967.25    285.46444    291.99094    290.93924 
     -0.2845  0.084054287   0.62217964    28450    301.70247    44.598711    67.459498    142.67882  -0.53592706  0.011599074 -0.0029688612 0.0015599834  0.019693918  0.028992823   0.54379534    14805.468    -954453.7   -939648.23    113474.17   -337753.25   -736496.01   -960775.09    2311.8348    3346.8331    662.72065    6321.3886    1734.6718    429264.46    286.30706    292.85209    291.76715 
      -0.285  0.084853984   0.62254983    28500    300.41523    44.567545    67.509262    142.71138  -0.54479141  0.021101765  0.015078438 -0.0052900091 0.00090446781 0.00096551193   0.56298491    14742.299   -954407.47   -939665.17    113549.82   -337798.62   -736493.82   -960742.62    2286.8497    3389.4298    658.87614    6335.1557    1673.2008    429378.89    286.91148    293.40381    292.02744 
     -0.2855  0.085499414    0.6227162    28550    300.29148    44.536378    67.549427    142.72602   -0.5619005 -0.015145417 0.00048952986 0.0044788949 -0.0055927446  0.012782872   0.55531818    14736.227   -954403.58   -939667.35    113697.13   -337932.67   -736472.21   -960707.75    2259.3683    3369.7684    675.03569    6304.1724     1896.723    429377.92    287.31635    293.75252    292.25906 
      -0.286  0.086149359   0.62292405    28600    300.36933    44.505212    67.589872     142.7443  -0.53808806 -0.031928992 -0.010520308 0.00057800871 0.0050638206    0.0026982   0.51729228    14740.047    -954408.4   -939668.36    113957.51   -338221.88   -736479.81   -960744.18    2272.4534    3385.5065    677.81225    6335.7722    1909.8194    429389.35    287.69807    294.13178    292.70483 
     -0.2865  0.087074181   0.62338157    28650    303.02858    44.474046    67.647423    142.78454  -0.55356993 -0.015137796 -0.014224124 -0.0028426889  0.013003502 -0.0090699109   0.53961121    14870.544   -954547.02   -939676.48    114023.32   -338455.35   -736468.16    -960900.2     2281.336    3365.7598    706.08356    6353.1794    1917.6967    429575.08    288.24895    294.76246    293.29194 
      -0.287  0.088457374   0.62393129    28700    300.78377     44.44288    67.733497    142.83289  -0.55454458 -0.031670208 -0.012462363  0.002982873 -0.00050378274 0.0097243054      0.53303    14760.385   -954470.66   -939710.27    114087.71   -338500.22   -736441.89   -960854.41    2281.8458    3399.6295      702.275    6383.7503    1969.4947    429965.81    288.89894    295.51708    294.07393 
     -0.2875  0.090078142   0.62484414    28750    300.18837    44.411714    67.834356    142.91318  -0.52680415  -0.01177119 -0.0086965707  0.012720758  0.012859891 0.0041477404    0.5175762    14731.167   -954449.05   -939717.89    113976.08   -338260.87    -736464.1   -960748.89    2287.3184    3352.4088     660.1096    6299.8368    1800.3846    430545.96    289.94349    296.58217    295.17679 
      -0.288  0.091731443   0.62597086    28800    298.07191    44.380548    67.937239    143.01228  -0.51460635 -0.045897784 0.0063672261  0.022153566 0.0080613963 -0.014752728   0.49923605    14627.306   -954331.59   -939704.29    113685.39   -337897.34   -736465.02   -960676.97    2285.4645    3385.6522    674.26158    6345.3783    1822.9687    431195.17    291.19943    297.85169    296.29376 
     -0.2885   0.09327296   0.62696379    28850    300.98056    44.349382    68.033166    143.09961  -0.48471313  0.033749466 -0.0081494538  0.016431905 -0.0020650291 -0.016151168   0.50044116    14770.042   -954440.82   -939670.78    113234.04   -337523.11   -736462.29   -960751.36    2299.4013    3352.9745    658.15826     6310.534    1510.3647    431764.28    292.29864    298.98007    297.47867 
      -0.289  0.094363985   0.62772351    28900    297.98351    44.318216    68.101059    143.16643  -0.49833571 -0.0029129241 -0.0052366421  0.023210857 -0.016537885  0.017974171   0.49769856    14622.967   -954273.13   -939650.16    113177.56    -337412.2   -736467.19   -960701.84     2328.436    3407.0945    693.17789    6428.7084     1666.207    432093.11    293.16352    299.87397    298.52637 
     -0.2895  0.095134841   0.62820267    28950    299.62855     44.28705    68.149029    143.20858  -0.46041079 -0.0038980771 0.0071180937 -0.017134703  -0.01386068 -0.024853874   0.46568716    14703.695   -954332.42   -939628.72    113393.01   -337672.08   -736468.44    -960747.5    2300.5233    3441.4866    673.07177    6415.0817    1504.0407    432220.59    293.80099    300.52043     298.9693 
       -0.29  0.095880285   0.62855625    29000    301.35495    44.255883    68.195417    143.23968    -0.533289 -0.016769861 -0.012387277 -0.00075305932  0.012310962 0.0039344957   0.51920876    14788.414    -954393.6   -939605.19    113499.66   -337794.76   -736424.38   -960719.48      2277.03    3377.3425    671.50497    6325.8775    1850.3039    432304.28    294.32504    301.03621    299.59052 
     -0.2905  0.096742744   0.62889359    29050    301.15491    44.224717    68.249087    143.26935  -0.47377664 -0.013762744 0.0038465745 0.0014717816   0.01743301  0.018397907   0.47112321    14778.598   -954382.83   -939604.23    113746.06   -338065.33   -736407.67   -960726.94    2315.1492     3394.206    634.76092    6344.1162    1591.2256    432429.38     294.7778    301.57171    300.20572 
      -0.291   0.09783029   0.62931685    29100    298.63318    44.193551    68.316764    143.30658  -0.53187276 -0.041552015 -0.019537715 -0.0011527605 -0.0022225444 -0.0036468629   0.50174877    14654.849   -954277.51   -939622.66    113881.96    -338100.5   -736388.54   -960607.08    2272.8969    3390.8821    665.79412    6329.5731    1950.6949    432665.54    295.29313    302.20316    300.81342 
     -0.2915  0.099076042   0.62979676    29150    301.36196    44.162385    68.394285    143.34879  -0.49422286  0.023847943 -0.0010421209 -0.029344386 -0.00052001293 -0.019936848    0.5098025    14788.758    -954395.2   -939606.44    113429.64   -337812.55    -736415.8   -960798.71    2310.5121    3429.7663    663.23471    6403.5131    1550.8415    432978.53    295.91081    302.85363     301.4193 
      -0.292   0.10009504   0.63024099    29200    303.15162    44.131219    68.457696    143.38786  -0.51792089 0.0010111908 -0.0087367989 -0.024160308 -0.005921989  0.042257722   0.52109548    14876.582   -954505.35   -939628.77    113439.35   -337795.08   -736408.76   -960764.49     2267.523     3308.192    683.42805     6259.143    1729.2425    433192.16    296.51676    303.42609    302.08938 
     -0.2925   0.10081406   0.63067427    29250    301.50255    44.100053     68.50244    143.42597  -0.51830043  0.014737068   0.01783534 -0.0083660125 0.00083117371  0.012508242   0.53523031    14795.658   -954462.05   -939666.39    113673.64   -338053.27   -736422.85   -960802.47    2316.2299    3367.9728    656.22205    6340.4248     1597.921    433284.29    297.07975    303.98293    302.66401 
      -0.293   0.10130429   0.63094817    29300    300.60428    44.068887    68.532946    143.45006  -0.54924101 -0.0045377007 -0.017538031 -0.016539478 0.00033123287 -0.028743233   0.54137685    14751.577    -954459.9   -939708.33    113636.15   -337935.58   -736423.33   -960722.76    2228.7636    3382.3732    651.72105    6262.8579    1879.4859    433243.66    297.46967    304.41293    303.10961 
     -0.2935    0.1018006    0.6309297    29350    300.59861    44.037721    68.563831    143.44844  -0.49831453 -0.035452725  0.041933401 -0.021770773 0.0021104223  0.013377483   0.50795755    14751.298   -954473.27   -939721.98    113884.42   -338224.22   -736442.45   -960782.24    2260.0052    3396.4908    652.47402      6308.97    1618.0076    433127.47    297.62573    304.59909    303.38514 
      -0.294   0.10256435   0.63080446    29400    299.29273    44.006554    68.611359    143.43742  -0.54961671 -0.020346566 -0.026905082 -0.017450277 0.0043572587  0.010200258   0.52723932    14687.215   -954409.23   -939722.02    114026.04   -338271.17   -736448.39   -960693.52    2202.4001    3414.0731     667.8137    6284.2869    1963.5442     433087.7    297.74126    304.69827    303.64607 
     -0.2945   0.10342807   0.63107066    29450    299.21295    43.975388    68.665107    143.46083  -0.50678033 -0.0048884138 -0.019725829 -0.031070115 -0.0073868999 -0.001552971   0.49773071      14683.3   -954389.69   -939706.39    113682.51   -337946.96   -736427.05    -960691.5    2250.5558    3394.9731    656.27585    6301.8047    1748.1522    433190.71    298.18587    305.14191    304.20714 
      -0.295   0.10418942    0.6317392    29500    301.13679    43.944222    68.712485    143.51963   -0.5121099  0.015281784 0.0055497827 -0.014420814 -0.0010091786 -0.00045747604   0.52319374    14777.708   -954460.62   -939682.91    113660.48   -337896.41   -736440.57    -960676.5    2257.5933    3326.9099    631.37998    6215.8833    1616.1801    433359.93    298.94159    305.94952    304.73017 
     -0.2955   0.10495686   0.63247763    29550    299.67307    43.913056    68.760242    143.58458  -0.52795465 -0.032841185 -0.0051372877 -0.013213923 0.0088285759   0.01602088   0.51102748    14705.879   -954387.11   -939681.23    113589.59   -337920.68   -736403.63   -960734.73      2258.98    3382.8801    705.75484    6347.6149    1861.7752    433549.68    299.77786    306.79878    305.34626 
      -0.296   0.10577774   0.63294716    29600    300.53424     43.88189    68.811325    143.62588  -0.53661955 -0.0044220698 -0.0011940764 -0.020876299 0.0093095907 -0.010435274   0.53559001     14748.14   -954416.51   -939668.37    113851.89   -338146.72   -736386.52   -960681.35    2258.0524    3326.8945    679.89813     6264.845    1783.8168    433688.54    300.41929     307.3862    306.17046 
     -0.2965   0.10672589   0.63348033    29650    301.66347    43.850724    68.870327    143.67278   -0.5694877  -0.01833208 -0.024369345 -0.011071675 -0.012597478   0.02290043   0.55036226    14803.554   -954459.09   -939655.54    114294.85   -338572.61   -736433.93    -960711.7    2211.7094    3405.5726    635.32218    6252.6042    2013.9456    433893.75    301.11083     308.0834    306.95095 
      -0.297    0.1080841   0.63448096    29700    302.58484    43.819558    68.954847    143.76079    -0.511624 -0.034051727 0.0034798262 -0.010436276 0.0079046563 -0.0032037178    0.4979487    14848.769   -954519.49   -939670.72    113982.49    -338337.8   -736416.79    -960772.1    2318.2986    3299.8558    634.45287    6252.6072    1783.6858    434383.41    302.19561    309.23753    307.88497 
     -0.2975   0.10965345   0.63548879    29750    301.01017    43.788392    69.052506    143.84943  -0.49590585 0.0077023723 0.0066867767 -0.014628278  0.032470343 0.0006785159   0.50686992    14771.495   -954491.32   -939719.83    113267.24   -337642.67   -736375.29   -960750.71    2177.2356    3410.0014    672.14996    6259.3869    1584.0668    434957.26    303.31804    310.36201    309.03678 
      -0.298   0.11070754   0.63602269    29800     301.7506    43.757226    69.118101    143.89639   -0.4760706  0.018253583  0.040264556  -0.00137515 -0.00015339109  0.011411105   0.50608084     14807.83   -954548.79   -939740.96    113322.95   -337739.33   -736387.43    -960803.8    2277.0382    3330.6713    647.30883    6255.0184    1373.6408    435202.59    304.03688    311.01872    309.66285 
     -0.2985   0.11141672   0.63601107    29850    301.29163    43.726059    69.162232    143.89537  -0.53317434 -0.026703587  0.008881326 -0.0085177947 0.0002609149 0.0094603369   0.52563103    14785.307   -954550.64   -939765.33    113577.54   -338031.47   -736381.98   -960835.91    2285.0831    3332.9286    667.25655    6285.2682    1812.6379     435167.2    304.24533    311.21066      309.875 
      -0.299   0.11255096   0.63559293    29900    299.10779    43.694893    69.232815    143.85859  -0.48445797 -0.077890648 -0.0045403587 -0.001236266 0.0065820217  0.013774671   0.44855642    14678.139   -954478.42   -939800.28    114162.19   -338525.69   -736394.46   -960757.95    2254.2912    3350.9507    674.29673    6279.5387    1864.9197    435189.56    304.06596      311.138    309.90006 
     -0.2995     0.114436   0.63539883    29950     301.0074    43.663727    69.350119    143.84152  -0.50978639 -0.0087073999 -0.027230885 -0.0087061796 -0.008279298 -0.0038798229   0.49256445    14771.359   -954575.21   -939803.86    114059.81   -338505.44   -736374.94   -960820.57    2258.2742    3330.3301    656.74924    6245.3535    1795.2946    435564.29    304.09837    311.33766    309.98356 
        -0.3   0.11633455   0.63592818    30000    300.15443    43.632561    69.468263    143.88808  -0.52481068 0.0029590464 -0.023274783 -0.013512336 -0.0024991998  0.015312602   0.51638512    14729.501   -954553.33   -939823.83    113820.47   -338233.64   -736379.47   -960792.63    2270.6163    3307.5792    661.11132    6239.3068    1793.3265    436136.02    304.80177     312.1012    310.56232 
Loop time of 3158.68 on 6 procs for 30000 steps with 16464 atoms

Performance: 0.821 ns/day, 29.247 hours/ns, 9.498 timesteps/s
136.3% CPU use with 1 MPI tasks x 6 OpenMP threads

MPI task timing breakdown:
Section |  min time  |  avg time  |  max time  |%varavg| %total
---------------------------------------------------------------
Pair    | 1323.1     | 1323.1     | 1323.1     |   0.0 | 41.89
Bond    | 67.554     | 67.554     | 67.554     |   0.0 |  2.14
Kspace  | 555.56     | 555.56     | 555.56     |   0.0 | 17.59
Neigh   | 100.44     | 100.44     | 100.44     |   0.0 |  3.18
Comm    | 6.9196     | 6.9196     | 6.9196     |   0.0 |  0.22
Output  | 9.5838     | 9.5838     | 9.5838     |   0.0 |  0.30
Modify  | 1091.7     | 1091.7     | 1091.7     |   0.0 | 34.56
Other   |            | 3.891      |            |       |  0.12

Nlocal:        16464.0 ave       16464 max       16464 min
Histogram: 1 0 0 0 0 0 0 0 0 0
Nghost:        23607.0 ave       23607 max       23607 min
Histogram: 1 0 0 0 0 0 0 0 0 0
Neighs:    1.75374e+06 ave 1.75374e+06 max 1.75374e+06 min
Histogram: 1 0 0 0 0 0 0 0 0 0
FullNghs:  4.50290e+06 ave  4.5029e+06 max  4.5029e+06 min
Histogram: 1 0 0 0 0 0 0 0 0 0

Total # of neighbors = 4502898
Ave neighs/atom = 273.49964
Ave special neighs/atom = 4.6666667
Neighbor list builds = 1260
Dangerous builds = 0

unfix 3
unfix 4

print "all done!"
all done!
Total wall time: 0:52:52
