ITEM: TIMESTEP
0
ITEM: NUMBER OF ATOMS
1372
ITEM: BOX BOUNDS pp pp pp
-8.9082456356606698e-01 6.1441405563566526e+01
3.5542203560131114e-01 6.2584314964397436e+01
1.9517849588335920e+00 8.9906793041170459e+01
ITEM: ATOMS id type xs ys zs c_boolead[1] c_boolead[2] c_boolead[3] c_boolead[4] c_boolead[5]
1079 1 0.123434 0.0695078 0.0181216 0.235098 0.427911 0.427696 0.216089 0.378827
8 1 0.0462258 0.137807 0.0191601 0.217633 0.394713 0.388533 0.181917 0.307698
1086 1 0.122949 0.202469 0.0203239 0.227694 0.344519 0.37645 0.237934 0.282671
57 1 0.195076 0.136027 0.0178481 0.273281 0.385167 0.419012 0.271392 0.375441
393 1 0.124318 0.0691844 0.0894665 0.274331 0.423857 0.382028 0.361243 0.382404
1080 1 0.122962 0.0711014 0.160736 0.251272 0.394442 0.411672 0.207834 0.393274
51 1 0.199332 0.000305458 0.15923 0.294721 0.38334 0.359597 0.283383 0.420013
694 1 0.0503961 0.139166 0.09175 0.21652 0.374374 0.386364 0.219289 0.292108
9 1 0.053861 0.142282 0.162877 0.237915 0.40108 0.392588 0.231868 0.336525
1087 1 0.123489 0.212227 0.159281 0.218009 0.42722 0.384314 0.147484 0.433792
743 1 0.196521 0.140208 0.0894802 0.199356 0.401694 0.37968 0.18153 0.368768
400 1 0.127003 0.210518 0.0892976 0.221787 0.420273 0.424445 0.234786 0.376442
58 1 0.194609 0.137306 0.157988 0.239573 0.391646 0.361602 0.225248 0.376523
394 1 0.125288 0.0697762 0.230149 0.213236 0.416717 0.418794 0.283682 0.388198
737 1 0.1934 0.000441715 0.229104 0.238668 0.390562 0.391923 0.187265 0.343974
695 1 0.0540922 0.137445 0.230008 0.216021 0.394577 0.418249 0.286737 0.369216
401 1 0.12262 0.211608 0.231921 0.186996 0.436927 0.420395 0.207547 0.372307
744 1 0.198878 0.13857 0.233329 0.179078 0.40349 0.363074 0.201569 0.347105
1081 1 0.124478 0.0702666 0.304701 0.20045 0.414211 0.436817 0.226056 0.34329
10 1 0.0497486 0.138545 0.304693 0.163555 0.473213 0.421986 0.179749 0.420744
59 1 0.194951 0.13917 0.304112 0.231738 0.41658 0.471221 0.200394 0.395358
1088 1 0.126292 0.207373 0.300443 0.199179 0.424471 0.403469 0.216955 0.400867
395 1 0.121904 0.0677277 0.372852 0.167765 0.464547 0.431097 0.206172 0.369567
696 1 0.049378 0.139666 0.372938 0.228604 0.41816 0.411134 0.187003 0.356352
402 1 0.118602 0.209737 0.374689 0.240995 0.384864 0.409162 0.255529 0.272645
745 1 0.19696 0.139931 0.375016 0.31431 0.31634 0.373352 0.319293 0.358649
1082 1 0.122641 0.0692072 0.446343 0.214902 0.441722 0.430692 0.164307 0.41323
11 1 0.0537297 0.138007 0.447106 0.181852 0.424716 0.395673 0.175488 0.389965
1089 1 0.122786 0.209281 0.446688 0.193489 0.42511 0.434368 0.226759 0.346223
60 1 0.193594 0.140388 0.447212 0.240814 0.421241 0.420059 0.199295 0.412792
396 1 0.121835 0.0681108 0.517818 0.278441 0.38874 0.385333 0.267551 0.36161
697 1 0.0531244 0.13647 0.517388 0.217382 0.430375 0.431933 0.219548 0.339031
403 1 0.123734 0.213395 0.518514 0.274057 0.396738 0.423596 0.221655 0.344745
746 1 0.195562 0.139603 0.518894 0.205019 0.410648 0.4376 0.197287 0.310434
1083 1 0.130218 0.0726999 0.588573 0.238972 0.426898 0.382172 0.198713 0.378003
397 1 0.127873 0.0679278 0.656655 0.218586 0.409822 0.387168 0.22218 0.337794
12 1 0.0497515 0.137695 0.588304 0.240476 0.403878 0.408178 0.21538 0.35673
1090 1 0.123005 0.210927 0.587123 0.225126 0.356796 0.426949 0.248976 0.349081
698 1 0.0528543 0.139572 0.660448 0.201787 0.431375 0.439433 0.237766 0.358322
61 1 0.197441 0.140871 0.587103 0.179389 0.445666 0.428585 0.19962 0.330984
747 1 0.193601 0.140154 0.66067 0.259359 0.396743 0.459941 0.215735 0.348543
404 1 0.125659 0.208981 0.659519 0.243194 0.410565 0.399639 0.220265 0.401369
1084 1 0.121146 0.0678374 0.732674 0.290244 0.392345 0.405904 0.242426 0.377799
13 1 0.0480487 0.142347 0.728621 0.211 0.383868 0.399718 0.182903 0.371313
62 1 0.197326 0.141936 0.729147 0.248549 0.409271 0.386439 0.278865 0.4365
1091 1 0.125543 0.21225 0.731747 0.184457 0.445178 0.449486 0.222383 0.378031
398 1 0.126422 0.0683553 0.799361 0.274267 0.393289 0.391894 0.297313 0.346651
699 1 0.0503917 0.143663 0.802496 0.210062 0.416311 0.376137 0.170157 0.405488
748 1 0.197868 0.145403 0.798262 0.216738 0.404081 0.329379 0.2454 0.329757
405 1 0.12619 0.212369 0.800389 0.256968 0.39611 0.344198 0.236318 0.44318
1085 1 0.128194 0.0674609 0.871146 0.225903 0.416201 0.367165 0.274979 0.361337
14 1 0.0501548 0.137988 0.873111 0.204467 0.42173 0.406093 0.186558 0.395093
63 1 0.192418 0.138523 0.872366 0.263364 0.381068 0.395503 0.302615 0.331311
1092 1 0.12625 0.213512 0.873303 0.198098 0.370625 0.358376 0.29363 0.366371
399 1 0.122572 0.0721563 0.947242 0.286424 0.382113 0.38073 0.236352 0.321197
700 1 0.0534926 0.143815 0.944013 0.243774 0.330539 0.412073 0.227468 0.361905
406 1 0.123266 0.206999 0.945959 0.221385 0.380174 0.383982 0.209867 0.286241
749 1 0.198539 0.136757 0.944109 0.232603 0.372717 0.345961 0.256196 0.309557
15 1 0.0539604 0.273895 0.0155355 0.22642 0.40281 0.396474 0.223004 0.335135
1093 1 0.123957 0.347374 0.0193309 0.235576 0.357994 0.344268 0.251823 0.409325
64 1 0.196784 0.27952 0.0188638 0.209365 0.405494 0.416641 0.233184 0.366188
22 1 0.0526754 0.420321 0.014581 0.251303 0.416062 0.450481 0.198748 0.399755
1100 1 0.125246 0.493648 0.0133535 0.199737 0.371781 0.351763 0.207616 0.341202
71 1 0.193598 0.420415 0.016908 0.228953 0.351236 0.415699 0.244881 0.342998
701 1 0.0487949 0.280784 0.0872687 0.197125 0.377355 0.429869 0.235515 0.358379
407 1 0.122284 0.35759 0.0858596 0.275608 0.364826 0.361477 0.311274 0.33127
16 1 0.053572 0.284024 0.157566 0.201449 0.368617 0.428446 0.174106 0.265925
1094 1 0.121576 0.351738 0.159243 0.274718 0.368255 0.359462 0.275104 0.348277
750 1 0.200651 0.283524 0.0864418 0.233211 0.380376 0.360248 0.17401 0.353247
65 1 0.193955 0.280318 0.158462 0.223229 0.428952 0.392645 0.196718 0.408171
708 1 0.0494237 0.422061 0.0877521 0.227806 0.390981 0.394915 0.240095 0.392762
414 1 0.120716 0.493232 0.0899145 0.296259 0.367243 0.325673 0.25996 0.408694
23 1 0.0525435 0.426517 0.159434 0.275268 0.381632 0.343885 0.292151 0.40958
1101 1 0.120537 0.495019 0.158036 0.209691 0.443921 0.43578 0.223025 0.370172
757 1 0.198143 0.425836 0.0888194 0.273915 0.393075 0.346862 0.229431 0.273621
72 1 0.197186 0.428421 0.157217 0.289439 0.37388 0.357376 0.244459 0.38549
702 1 0.0518354 0.281743 0.229957 0.23891 0.416034 0.45592 0.212776 0.358182
751 1 0.195172 0.280068 0.226192 0.234779 0.36626 0.331542 0.224691 0.374335
408 1 0.12536 0.356293 0.227265 0.272566 0.424666 0.389296 0.218991 0.380568
709 1 0.0535049 0.424562 0.228547 0.268221 0.36582 0.40176 0.255997 0.430963
758 1 0.195512 0.429733 0.231109 0.200348 0.38904 0.400989 0.228248 0.348479
415 1 0.12658 0.497875 0.229734 0.208511 0.367359 0.410263 0.247321 0.410675
17 1 0.0449344 0.285891 0.302492 0.253867 0.337611 0.363631 0.270504 0.278316
1095 1 0.120093 0.352215 0.300899 0.208576 0.385063 0.36013 0.248994 0.408874
66 1 0.194625 0.280275 0.300669 0.194079 0.45514 0.435465 0.207968 0.386729
24 1 0.0529851 0.418696 0.300641 0.278769 0.369609 0.363971 0.280692 0.33797
1102 1 0.124059 0.49915 0.300736 0.264767 0.377665 0.41614 0.231417 0.371904
73 1 0.196846 0.42833 0.302242 0.260574 0.406377 0.417086 0.273059 0.379641
703 1 0.0521568 0.278691 0.37437 0.248894 0.405151 0.366263 0.265185 0.352643
409 1 0.124203 0.353344 0.374426 0.227477 0.43992 0.441876 0.216433 0.417844
752 1 0.194879 0.282357 0.372264 0.178786 0.4495 0.431938 0.182407 0.401915
710 1 0.0518592 0.423082 0.369967 0.19671 0.386771 0.423535 0.194895 0.318598
416 1 0.123727 0.49517 0.372992 0.248451 0.393036 0.412066 0.282635 0.362696
759 1 0.194932 0.422926 0.374483 0.230573 0.423516 0.411753 0.233346 0.42007
18 1 0.054113 0.283157 0.44727 0.277378 0.404055 0.387645 0.260091 0.333216
1096 1 0.122822 0.354145 0.445413 0.28691 0.416409 0.377719 0.29225 0.445181
67 1 0.193549 0.28204 0.443606 0.22767 0.420553 0.438567 0.197285 0.381046
25 1 0.0547802 0.419265 0.440127 0.228586 0.346319 0.398312 0.195839 0.266657
1103 1 0.124763 0.499481 0.44398 0.261825 0.384858 0.393929 0.254421 0.356903
74 1 0.190378 0.42 0.447332 0.217628 0.401588 0.335043 0.214659 0.444153
704 1 0.0488933 0.282197 0.518114 0.220912 0.361879 0.394517 0.255787 0.363731
410 1 0.120418 0.352254 0.518751 0.307352 0.372064 0.361747 0.287974 0.359313
753 1 0.195899 0.287042 0.517964 0.247491 0.382677 0.416954 0.255803 0.361936
711 1 0.053969 0.425678 0.518964 0.275902 0.353106 0.408951 0.2546 0.334036
417 1 0.124542 0.496398 0.515798 0.272933 0.373739 0.368832 0.315207 0.385088
760 1 0.196037 0.424715 0.517728 0.245134 0.418212 0.367732 0.27469 0.354425
19 1 0.0524885 0.283683 0.589959 0.270833 0.39224 0.453696 0.250492 0.340187
705 1 0.0511193 0.283462 0.658225 0.248233 0.410739 0.388499 0.187052 0.373391
411 1 0.123007 0.354627 0.659089 0.237332 0.390019 0.411402 0.270119 0.337966
68 1 0.199783 0.283681 0.586355 0.234009 0.39047 0.419778 0.230599 0.390138
1097 1 0.12578 0.355326 0.590387 0.219149 0.417957 0.422608 0.235879 0.355421
754 1 0.195925 0.28404 0.660811 0.232034 0.398753 0.418084 0.211639 0.409224
26 1 0.0528018 0.427518 0.58724 0.258791 0.377622 0.393778 0.292638 0.345456
1104 1 0.122763 0.493725 0.589644 0.215114 0.425438 0.382669 0.206553 0.326654
712 1 0.0537055 0.424834 0.659347 0.240039 0.361113 0.381687 0.231398 0.32174
418 1 0.12182 0.495746 0.659461 0.245219 0.400182 0.416495 0.243649 0.405696
75 1 0.200583 0.421283 0.588503 0.236295 0.391794 0.402114 0.203444 0.308768
761 1 0.193536 0.425518 0.659516 0.211133 0.418112 0.398348 0.183188 0.406154
20 1 0.0525919 0.284163 0.730334 0.260862 0.334304 0.374781 0.298455 0.389676
1098 1 0.118614 0.34734 0.731471 0.364093 0.377637 0.436169 0.231748 0.267659
69 1 0.19223 0.281829 0.733246 0.262611 0.392003 0.385875 0.192838 0.316039
27 1 0.0537557 0.420744 0.731915 0.203997 0.410378 0.406825 0.166754 0.430574
1105 1 0.123315 0.49598 0.731297 0.282346 0.389589 0.389583 0.314976 0.383287
76 1 0.192885 0.424845 0.729455 0.351814 0.338989 0.361014 0.280401 0.402824
706 1 0.0519135 0.282748 0.804324 0.235917 0.416105 0.412623 0.212313 0.3912
412 1 0.120488 0.355651 0.802397 0.233811 0.42321 0.424948 0.261009 0.401818
755 1 0.194284 0.287203 0.801533 0.224298 0.393311 0.366965 0.240711 0.327009
713 1 0.0516837 0.425424 0.799275 0.286522 0.372985 0.401549 0.258862 0.36606
762 1 0.19528 0.423174 0.800238 0.219122 0.416732 0.403451 0.247058 0.389385
419 1 0.125059 0.498849 0.802809 0.210788 0.431107 0.425369 0.262584 0.387097
21 1 0.0524868 0.285686 0.87214 0.199382 0.405155 0.37861 0.212934 0.374308
1099 1 0.124398 0.354367 0.871989 0.217277 0.417107 0.38465 0.259003 0.404413
70 1 0.189791 0.284327 0.87403 0.251823 0.35535 0.286715 0.281925 0.331636
28 1 0.0518603 0.428354 0.873569 0.193855 0.437349 0.400446 0.188522 0.383823
1106 1 0.126148 0.495519 0.873968 0.27191 0.394523 0.423771 0.258339 0.378494
77 1 0.193001 0.423704 0.874013 0.29336 0.379468 0.395395 0.288142 0.391677
707 1 0.0538584 0.280435 0.946907 0.246866 0.393013 0.377622 0.21889 0.310651
756 1 0.192684 0.276485 0.946465 0.202453 0.390232 0.383919 0.203285 0.302771
413 1 0.125029 0.350041 0.944836 0.277714 0.375152 0.404767 0.280015 0.428673
714 1 0.0539453 0.420265 0.945833 0.228786 0.391068 0.36769 0.248358 0.348236
420 1 0.127162 0.493133 0.944079 0.283869 0.346679 0.407576 0.313854 0.377763
763 1 0.193426 0.424835 0.94416 0.208784 0.40195 0.401823 0.213997 0.39958
29 1 0.0538575 0.570367 0.0162588 0.180696 0.394295 0.398617 0.17437 0.344717
78 1 0.191913 0.568863 0.0150903 0.213838 0.380358 0.39298 0.242368 0.36422
1107 1 0.124984 0.637395 0.0165187 0.269473 0.391679 0.422968 0.18703 0.406066
36 1 0.0501883 0.707366 0.0174365 0.317083 0.380064 0.395303 0.230165 0.361348
85 1 0.194567 0.712482 0.0157908 0.209813 0.417815 0.442712 0.181766 0.346385
715 1 0.0466407 0.561584 0.0852936 0.209087 0.389735 0.376474 0.224008 0.389534
30 1 0.0527911 0.566232 0.15559 0.228812 0.41178 0.389856 0.265046 0.311258
764 1 0.196167 0.570212 0.0876801 0.235976 0.368028 0.395187 0.237927 0.40172
79 1 0.192865 0.568501 0.161364 0.242109 0.397919 0.362458 0.193296 0.358507
722 1 0.0488407 0.711941 0.0896006 0.233006 0.393983 0.397356 0.214749 0.369589
1108 1 0.11964 0.638372 0.158503 0.277934 0.398775 0.41122 0.336124 0.32675
37 1 0.0466656 0.707599 0.159171 0.263265 0.405283 0.365506 0.284763 0.380336
421 1 0.129246 0.642547 0.0873349 0.244911 0.409221 0.355706 0.270588 0.399494
771 1 0.194909 0.710879 0.0877358 0.196736 0.415835 0.388044 0.260772 0.331855
86 1 0.189945 0.711067 0.158242 0.256228 0.349451 0.358332 0.259549 0.424682
716 1 0.0518808 0.562855 0.230693 0.283792 0.428137 0.427692 0.282471 0.347362
765 1 0.196901 0.569478 0.231352 0.263016 0.409989 0.416389 0.247322 0.38183
422 1 0.12437 0.638302 0.235085 0.180246 0.383131 0.36047 0.156616 0.312836
723 1 0.0511676 0.701879 0.232544 0.277366 0.368455 0.351029 0.219696 0.366438
772 1 0.195173 0.708503 0.23199 0.19355 0.420824 0.411693 0.232285 0.38635
31 1 0.0513919 0.563896 0.301552 0.243159 0.425043 0.440063 0.216194 0.364012
80 1 0.196204 0.566707 0.30436 0.292227 0.420856 0.410583 0.192997 0.408223
1109 1 0.121977 0.637939 0.303366 0.271536 0.406447 0.411932 0.250621 0.363563
38 1 0.0553404 0.708817 0.301323 0.313131 0.379698 0.381334 0.291613 0.35889
87 1 0.191463 0.713243 0.299776 0.235852 0.349969 0.361722 0.242714 0.273945
717 1 0.0506418 0.563568 0.371686 0.254615 0.383556 0.370624 0.274001 0.382593
766 1 0.187753 0.565141 0.372183 0.191255 0.393257 0.355293 0.221926 0.292337
423 1 0.119152 0.642503 0.373157 0.226399 0.387091 0.383307 0.183035 0.364219
724 1 0.051186 0.710653 0.371218 0.224481 0.353254 0.415895 0.266461 0.351067
773 1 0.190847 0.712221 0.372159 0.195292 0.406834 0.444651 0.153434 0.337796
32 1 0.0490386 0.567735 0.442685 0.237598 0.393333 0.372568 0.241807 0.345547
81 1 0.196446 0.566148 0.446923 0.21118 0.390997 0.360757 0.244225 0.293175
1110 1 0.120388 0.638689 0.442412 0.281746 0.432465 0.408077 0.293785 0.435618
39 1 0.0506101 0.710784 0.446599 0.203827 0.408953 0.397224 0.257973 0.362493
88 1 0.193398 0.711212 0.446642 0.223002 0.384773 0.367095 0.257397 0.430693
718 1 0.0499389 0.568191 0.514464 0.321729 0.370741 0.356436 0.268122 0.441768
767 1 0.19465 0.566235 0.51535 0.221946 0.408786 0.416315 0.24327 0.369759
725 1 0.0503903 0.706844 0.514109 0.184852 0.403076 0.450217 0.185213 0.345849
1111 1 0.124299 0.643108 0.582767 0.248485 0.375875 0.347342 0.219329 0.307391
424 1 0.126214 0.640455 0.515128 0.234949 0.392202 0.344134 0.279297 0.372469
774 1 0.19703 0.709681 0.515359 0.297782 0.348706 0.387252 0.333119 0.322219
33 1 0.0529724 0.571259 0.587704 0.284534 0.367219 0.351864 0.306305 0.340513
719 1 0.0504606 0.567094 0.658417 0.181784 0.435027 0.445529 0.170716 0.43295
82 1 0.194195 0.563362 0.590063 0.246421 0.388279 0.395495 0.26377 0.333832
768 1 0.19349 0.56897 0.658014 0.259407 0.406349 0.423912 0.267928 0.380067
40 1 0.0542653 0.708787 0.586694 0.192797 0.416442 0.433711 0.187943 0.402983
425 1 0.124891 0.640369 0.659019 0.257932 0.427311 0.375629 0.212049 0.370417
726 1 0.0534694 0.708267 0.658445 0.229054 0.371648 0.391867 0.221813 0.34296
89 1 0.185507 0.710517 0.589575 0.289966 0.379081 0.326053 0.27586 0.272315
775 1 0.196515 0.71134 0.656942 0.279846 0.343436 0.3944 0.291852 0.387043
34 1 0.0558969 0.565876 0.731832 0.230119 0.421337 0.396334 0.130623 0.327329
83 1 0.194574 0.565357 0.730505 0.241651 0.411563 0.374425 0.26251 0.382423
41 1 0.0522612 0.711267 0.731637 0.207753 0.441819 0.464069 0.204122 0.383432
1112 1 0.126029 0.637328 0.732058 0.232132 0.441708 0.422737 0.247931 0.375183
90 1 0.198081 0.710931 0.732462 0.270878 0.372755 0.336284 0.223794 0.378421
720 1 0.0486323 0.568252 0.804783 0.208049 0.396374 0.389474 0.192196 0.379007
769 1 0.197734 0.564329 0.802697 0.249936 0.372828 0.380499 0.3044 0.368133
727 1 0.0484011 0.709038 0.797632 0.211051 0.369947 0.389234 0.165198 0.306092
426 1 0.126763 0.63699 0.802801 0.207924 0.394402 0.422739 0.208702 0.363981
776 1 0.195626 0.711164 0.799635 0.231189 0.435702 0.446529 0.236779 0.410362
35 1 0.0494417 0.563484 0.872214 0.205335 0.373357 0.384999 0.278559 0.299464
84 1 0.190845 0.571777 0.876535 0.250654 0.382945 0.37371 0.276127 0.315726
42 1 0.0566181 0.708773 0.872775 0.221294 0.380811 0.377971 0.264806 0.402143
1113 1 0.128009 0.641768 0.874025 0.249942 0.394904 0.409878 0.244517 0.353323
91 1 0.199303 0.71201 0.869397 0.254113 0.340015 0.386299 0.290461 0.348505
721 1 0.0528014 0.570645 0.945998 0.207457 0.390348 0.414484 0.257573 0.360961
770 1 0.194228 0.567996 0.94402 0.257106 0.392264 0.408325 0.232813 0.347085
427 1 0.120631 0.636213 0.944021 0.19933 0.369418 0.352293 0.222976 0.348638
728 1 0.0532513 0.709091 0.945681 0.205317 0.395867 0.398104 0.207967 0.333954
777 1 0.194173 0.709292 0.944648 0.238579 0.39064 0.43336 0.220053 0.37495
1114 1 0.122872 0.781468 0.0158446 0.25093 0.403322 0.369327 0.215293 0.387314
43 1 0.0509998 0.85093 0.0153812 0.252154 0.387268 0.415157 0.241349 0.359051
92 1 0.191837 0.850229 0.0163086 0.197585 0.408224 0.443004 0.148922 0.353752
1 1 0.0561816 0.994135 0.0171162 0.204542 0.416397 0.388234 0.222964 0.389361
1121 1 0.12351 0.922259 0.0147637 0.189749 0.419604 0.382528 0.200679 0.330503
50 1 0.197725 0.995157 0.0168009 0.215272 0.387082 0.441624 0.255395 0.356507
428 1 0.122534 0.781678 0.0897218 0.259112 0.398092 0.456703 0.229238 0.386868
729 1 0.0495867 0.853857 0.0880662 0.194325 0.408097 0.420873 0.177056 0.393036
1115 1 0.120515 0.783955 0.157786 0.230039 0.367778 0.427013 0.24164 0.368857
44 1 0.0582167 0.857294 0.161792 0.172652 0.423348 0.405808 0.157943 0.315063
778 1 0.194536 0.859538 0.0862524 0.194923 0.40857 0.34925 0.171338 0.359737
93 1 0.198372 0.855856 0.158268 0.203449 0.43561 0.434151 0.260315 0.358159
687 1 0.056241 0.995311 0.0887723 0.201928 0.402719 0.410413 0.172991 0.347086
435 1 0.12341 0.920179 0.0882099 0.264827 0.376925 0.409413 0.286948 0.37396
2 1 0.051514 0.999204 0.159447 0.286309 0.416834 0.389991 0.304344 0.38521
736 1 0.198016 0.993512 0.0874137 0.236678 0.417777 0.428651 0.288841 0.346421
1122 1 0.125699 0.924301 0.15901 0.219986 0.387483 0.447845 0.219499 0.376693
429 1 0.121907 0.779874 0.228158 0.186934 0.422034 0.394723 0.221108 0.361128
730 1 0.0540647 0.852281 0.230782 0.237455 0.411854 0.396732 0.252587 0.380791
779 1 0.19481 0.85391 0.229486 0.214902 0.389604 0.375942 0.245974 0.408137
688 1 0.0527016 0.995861 0.230032 0.274862 0.372837 0.414125 0.226326 0.350693
436 1 0.123236 0.925422 0.228713 0.267563 0.378342 0.381925 0.260897 0.3684
1116 1 0.118064 0.776764 0.300223 0.298708 0.347306 0.31534 0.27976 0.364788
45 1 0.0503513 0.852745 0.298934 0.302267 0.361604 0.357765 0.255947 0.346835
94 1 0.192215 0.853977 0.301266 0.22727 0.400454 0.372157 0.237322 0.354756
3 1 0.0551694 0.994734 0.302851 0.220478 0.430682 0.383327 0.287521 0.37916
52 1 0.190904 0.998996 0.302875 0.267682 0.459552 0.448742 0.175619 0.413327
1123 1 0.12571 0.926282 0.300585 0.22823 0.405483 0.37612 0.202062 0.382312
430 1 0.123753 0.784439 0.370067 0.203369 0.400699 0.403083 0.228849 0.352629
731 1 0.0517535 0.854751 0.375493 0.15368 0.442734 0.422502 0.119889 0.360717
780 1 0.191942 0.852576 0.372069 0.220186 0.381533 0.363266 0.225993 0.377081
689 1 0.0529957 0.997207 0.37561 0.180149 0.427437 0.394859 0.182984 0.382007
437 1 0.120115 0.923684 0.375327 0.203536 0.421081 0.380739 0.215245 0.398607
738 1 0.19343 0.999016 0.374018 0.249503 0.377084 0.438729 0.233901 0.335347
1117 1 0.124177 0.78315 0.446817 0.23358 0.444298 0.429956 0.246163 0.440313
46 1 0.0524122 0.854911 0.443904 0.204497 0.390239 0.408846 0.188538 0.375045
95 1 0.194856 0.851651 0.448309 0.319013 0.327585 0.395243 0.260324 0.369328
4 1 0.0545693 0.998905 0.447681 0.27711 0.356211 0.380723 0.329849 0.369854
1124 1 0.121149 0.931028 0.444455 0.197168 0.396557 0.366764 0.238795 0.328914
53 1 0.192028 0.99823 0.442937 0.217706 0.409947 0.408716 0.214239 0.34637
431 1 0.124025 0.787614 0.516573 0.200983 0.345262 0.362809 0.271689 0.34801
732 1 0.0506629 0.85247 0.516822 0.256272 0.411566 0.441401 0.210055 0.395123
781 1 0.196408 0.852463 0.514427 0.233199 0.363284 0.389171 0.236864 0.366715
690 1 0.0525175 0.992294 0.517729 0.245568 0.427789 0.446722 0.180635 0.428612
739 1 0.192693 0.999837 0.517149 0.242684 0.420329 0.395547 0.200346 0.396208
438 1 0.127592 0.921461 0.517289 0.200546 0.399629 0.409638 0.196108 0.288096
1118 1 0.124564 0.780494 0.586151 0.264094 0.375014 0.34786 0.275868 0.428048
47 1 0.0506354 0.851 0.586658 0.204243 0.415416 0.407293 0.170788 0.335924
733 1 0.0550741 0.853263 0.659163 0.270689 0.379489 0.398095 0.249042 0.335785
96 1 0.197619 0.848392 0.587873 0.218159 0.411523 0.443613 0.218365 0.374636
432 1 0.125585 0.780549 0.658053 0.277263 0.38993 0.372138 0.248895 0.366577
782 1 0.197339 0.851671 0.659101 0.19665 0.42479 0.387894 0.198255 0.399747
5 1 0.0500171 0.994137 0.589682 0.198662 0.431434 0.416445 0.209985 0.418578
1125 1 0.124819 0.921995 0.588909 0.187745 0.408463 0.376502 0.177499 0.405208
691 1 0.0515312 0.993685 0.660208 0.267253 0.404268 0.39527 0.267044 0.422489
439 1 0.124538 0.923895 0.658683 0.261967 0.437739 0.400292 0.296608 0.407097
54 1 0.200296 0.995002 0.588733 0.253591 0.391901 0.371497 0.243216 0.36719
740 1 0.195557 0.997827 0.659447 0.247623 0.379522 0.382245 0.270628 0.413768
48 1 0.0518347 0.852095 0.726316 0.240767 0.326971 0.377887 0.241665 0.293992
1119 1 0.125738 0.781446 0.729211 0.266339 0.39044 0.381564 0.314626 0.400162
97 1 0.192812 0.856668 0.728208 0.241149 0.38158 0.394017 0.252801 0.357708
6 1 0.0514836 0.999113 0.73061 0.254669 0.364906 0.391745 0.2089 0.350418
1126 1 0.125247 0.924442 0.72989 0.261646 0.404427 0.396695 0.191405 0.394072
55 1 0.193077 0.993309 0.72782 0.198411 0.418459 0.402437 0.200477 0.403346
433 1 0.122653 0.782294 0.801071 0.24128 0.399479 0.426129 0.299399 0.363383
734 1 0.0478537 0.850107 0.802235 0.164132 0.386549 0.392022 0.220753 0.303533
783 1 0.190059 0.855301 0.80059 0.191313 0.377049 0.406125 0.199726 0.262916
692 1 0.0555268 0.993379 0.802988 0.193462 0.451883 0.455654 0.187959 0.385938
440 1 0.123922 0.924042 0.802907 0.192774 0.424548 0.398852 0.155892 0.37574
741 1 0.197054 0.998803 0.804696 0.292944 0.362775 0.38423 0.284975 0.35177
49 1 0.048947 0.849846 0.874441 0.24663 0.407841 0.396982 0.240215 0.39366
1120 1 0.126858 0.780917 0.873706 0.243584 0.357215 0.425415 0.291688 0.365346
98 1 0.193993 0.853759 0.874141 0.219648 0.405885 0.414088 0.240648 0.3543
7 1 0.0568464 0.99466 0.871909 0.288508 0.364364 0.352118 0.281531 0.334473
1127 1 0.123584 0.924413 0.872677 0.218632 0.390619 0.442826 0.232862 0.405236
56 1 0.201627 0.999379 0.874133 0.267807 0.395322 0.411444 0.245518 0.378367
434 1 0.120555 0.78564 0.944553 0.269523 0.415941 0.344246 0.248807 0.392302
735 1 0.0505606 0.850314 0.945772 0.257033 0.404477 0.388298 0.2473 0.384565
784 1 0.193675 0.8505 0.944303 0.260023 0.414184 0.389969 0.256741 0.386858
693 1 0.0547931 0.996137 0.945655 0.205635 0.428167 0.398164 0.2365 0.357119
441 1 0.123583 0.927668 0.943151 0.218922 0.403629 0.405962 0.234562 0.411532
742 1 0.196994 0.998622 0.944196 0.187276 0.414016 0.409259 0.207834 0.370935
1128 1 0.269311 0.0613486 0.0124241 0.270479 0.392199 0.39127 0.21419 0.368629
1177 1 0.412923 0.0689104 0.0149328 0.201349 0.429992 0.414289 0.229661 0.406832
106 1 0.34305 0.14308 0.017742 0.275359 0.326037 0.384968 0.228533 0.259489
1135 1 0.268492 0.212672 0.0156551 0.199305 0.411661 0.437924 0.230993 0.38365
155 1 0.481968 0.138803 0.0177939 0.265708 0.359567 0.369822 0.278531 0.430728
1184 1 0.40958 0.208427 0.0163717 0.21048 0.386397 0.394484 0.240663 0.300296
442 1 0.270008 0.0658751 0.0866841 0.173755 0.431486 0.425271 0.18399 0.38051
1129 1 0.270207 0.0658733 0.15569 0.215181 0.406074 0.457543 0.165113 0.345344
491 1 0.41204 0.0645473 0.0869077 0.3184 0.378073 0.35164 0.260444 0.3483
1178 1 0.408844 0.0636594 0.160053 0.196096 0.416338 0.380267 0.228412 0.317965
792 1 0.341035 0.137908 0.0877649 0.211863 0.400499 0.433908 0.304061 0.372836
449 1 0.265919 0.209083 0.0899835 0.229268 0.39507 0.390273 0.211856 0.409104
107 1 0.332552 0.137404 0.155906 0.266574 0.322631 0.330216 0.304202 0.327747
1136 1 0.267354 0.209878 0.160523 0.233474 0.412147 0.3935 0.274044 0.370743
841 1 0.479236 0.140667 0.0889413 0.256783 0.369536 0.379727 0.229791 0.358188
498 1 0.409022 0.211063 0.0873828 0.194876 0.443219 0.422193 0.166466 0.400003
156 1 0.47987 0.143416 0.160467 0.217141 0.433075 0.379884 0.237925 0.369403
1185 1 0.40392 0.212058 0.160688 0.24123 0.403215 0.419335 0.191906 0.415768
443 1 0.270599 0.067838 0.234417 0.250012 0.320731 0.366582 0.24842 0.272394
492 1 0.408353 0.066247 0.229945 0.266396 0.376605 0.433362 0.25417 0.326831
793 1 0.341599 0.137822 0.232017 0.241443 0.332126 0.416541 0.246633 0.303956
450 1 0.267369 0.21319 0.231992 0.22902 0.388409 0.383214 0.299261 0.343527
842 1 0.47589 0.14092 0.231492 0.188964 0.446482 0.40899 0.220074 0.402387
499 1 0.401445 0.21104 0.229646 0.222523 0.33025 0.396549 0.280145 0.317865
1130 1 0.268212 0.0663404 0.302998 0.173738 0.463038 0.425062 0.219319 0.371011
1179 1 0.412716 0.0687632 0.301923 0.191913 0.412806 0.396041 0.189364 0.343699
108 1 0.337476 0.139524 0.306969 0.235384 0.42465 0.407591 0.230634 0.37077
1137 1 0.266086 0.211837 0.303145 0.222618 0.428222 0.426596 0.210549 0.342381
157 1 0.479991 0.141326 0.301603 0.206277 0.425244 0.460766 0.198087 0.426554
1186 1 0.402136 0.215039 0.301309 0.33468 0.282101 0.333752 0.300405 0.396863
444 1 0.266128 0.0699942 0.374203 0.24853 0.390663 0.391411 0.26148 0.42525
493 1 0.408836 0.0628461 0.378053 0.237803 0.4363 0.370887 0.269848 0.351756
794 1 0.339914 0.134117 0.374559 0.250394 0.363507 0.399115 0.312764 0.295855
451 1 0.269152 0.210543 0.375209 0.212898 0.419972 0.41926 0.223611 0.389102
843 1 0.477298 0.140471 0.372255 0.306037 0.346142 0.45006 0.304824 0.394128
500 1 0.406136 0.206219 0.372251 0.191372 0.442963 0.432624 0.225772 0.372966
1131 1 0.261101 0.0682645 0.442602 0.265587 0.408351 0.353525 0.253578 0.353958
1180 1 0.40775 0.0601341 0.448593 0.200504 0.350272 0.380216 0.243371 0.335547
109 1 0.335558 0.132565 0.443803 0.18092 0.43967 0.399882 0.233026 0.361487
1138 1 0.265499 0.207622 0.445124 0.252891 0.425921 0.358313 0.244069 0.370588
158 1 0.481473 0.13926 0.444387 0.231075 0.377869 0.366582 0.314899 0.291438
1187 1 0.409098 0.206918 0.443215 0.204684 0.455232 0.437644 0.244799 0.423205
445 1 0.264407 0.0692523 0.512916 0.19445 0.424149 0.421133 0.200021 0.360455
1132 1 0.270077 0.0693171 0.582437 0.197955 0.379527 0.367869 0.185058 0.320324
494 1 0.403783 0.0710975 0.51594 0.262816 0.368243 0.346771 0.305256 0.384895
795 1 0.334824 0.138761 0.512857 0.18148 0.409379 0.423636 0.181897 0.335786
452 1 0.266852 0.208749 0.515998 0.231599 0.421132 0.428874 0.271915 0.353074
844 1 0.478428 0.139838 0.516345 0.243535 0.427374 0.451777 0.197303 0.372585
501 1 0.409569 0.206246 0.513137 0.199713 0.415076 0.38065 0.201297 0.377149
446 1 0.266463 0.0676804 0.662823 0.226794 0.389727 0.407971 0.221101 0.358612
1181 1 0.411659 0.0669647 0.589822 0.202315 0.445204 0.442442 0.196602 0.397062
495 1 0.409814 0.0665499 0.658799 0.248701 0.38494 0.342631 0.258487 0.372933
110 1 0.337656 0.133666 0.589351 0.216236 0.414141 0.410838 0.241503 0.339201
1139 1 0.267025 0.209022 0.588806 0.191745 0.414957 0.459341 0.203167 0.294182
796 1 0.339063 0.137222 0.659748 0.201993 0.407292 0.418081 0.23574 0.376321
453 1 0.269844 0.217013 0.657245 0.269679 0.410001 0.42266 0.290249 0.346101
159 1 0.479242 0.141509 0.587339 0.182687 0.388147 0.46138 0.210701 0.350642
1188 1 0.407519 0.212869 0.589445 0.197565 0.438453 0.424315 0.220096 0.352348
845 1 0.479523 0.142263 0.660915 0.250916 0.407306 0.37791 0.271727 0.349461
502 1 0.408211 0.211083 0.659954 0.234591 0.408205 0.39197 0.227343 0.347731
1133 1 0.266318 0.070242 0.730835 0.205775 0.360856 0.435719 0.18566 0.368317
1182 1 0.409723 0.0682145 0.730403 0.227951 0.375222 0.4171 0.220896 0.337536
111 1 0.34182 0.140632 0.730524 0.230074 0.401099 0.433294 0.277392 0.347665
1140 1 0.268593 0.218877 0.730595 0.226759 0.422104 0.420611 0.191058 0.338535
160 1 0.483452 0.142478 0.73082 0.230557 0.41699 0.409813 0.233116 0.393236
1189 1 0.41267 0.211664 0.728394 0.222945 0.465755 0.450271 0.174557 0.371838
447 1 0.267819 0.0661371 0.798591 0.167098 0.445725 0.423213 0.188805 0.382355
496 1 0.40838 0.0678843 0.80349 0.212463 0.421429 0.392819 0.24361 0.374215
797 1 0.339643 0.139673 0.800017 0.210539 0.415651 0.409883 0.150496 0.37982
454 1 0.267256 0.212875 0.799831 0.249032 0.373108 0.386416 0.224163 0.367227
846 1 0.483488 0.13968 0.801829 0.269837 0.425735 0.397843 0.233562 0.390325
503 1 0.412057 0.210968 0.802403 0.337157 0.382379 0.378072 0.26851 0.439013
1134 1 0.266681 0.0694283 0.874514 0.180851 0.436337 0.443453 0.133208 0.335103
1183 1 0.409195 0.0730594 0.873607 0.199182 0.413288 0.382806 0.220336 0.337937
154 1 0.481988 0.000275225 0.875967 0.250214 0.446866 0.423103 0.265368 0.416122
112 1 0.336706 0.140715 0.870036 0.247788 0.36417 0.401494 0.25 0.354643
1141 1 0.263566 0.206168 0.874208 0.259694 0.308935 0.365977 0.263744 0.320781
161 1 0.480629 0.143476 0.871164 0.209718 0.443483 0.406269 0.216819 0.369007
1190 1 0.40911 0.211714 0.873902 0.193321 0.424788 0.390475 0.193395 0.382223
448 1 0.270334 0.0693082 0.944818 0.24022 0.423018 0.398935 0.240108 0.365702
791 1 0.341365 0.00362811 0.943697 0.23706 0.399648 0.376507 0.234011 0.278059
497 1 0.412247 0.0689161 0.943918 0.201902 0.418591 0.4326 0.200746 0.391271
798 1 0.340863 0.141474 0.947926 0.296744 0.385745 0.355382 0.280835 0.393439
455 1 0.267166 0.213303 0.944923 0.225229 0.392235 0.399543 0.265705 0.338473
847 1 0.482873 0.138711 0.94339 0.287468 0.350878 0.37988 0.286221 0.410325
504 1 0.408307 0.21261 0.94695 0.196119 0.456641 0.423612 0.163545 0.44249
113 1 0.337667 0.283742 0.0162813 0.192134 0.405265 0.408383 0.17611 0.354096
1142 1 0.26536 0.353256 0.0169026 0.226742 0.403318 0.383074 0.234379 0.35636