ITEM: TIMESTEP
0
ITEM: NUMBER OF ATOMS
1372
ITEM: BOX BOUNDS pp pp pp
-8.9082456356606698e-01 6.1441405563566526e+01
3.5542203560131114e-01 6.2584314964397436e+01
1.9517849588335920e+00 8.9906793041170459e+01
ITEM: ATOMS id type xs ys zs c_boolead[1] c_boolead[2] c_boolead[3] c_boolead[4] c_boolead[5]
1079 1 0.123434 0.0695078 0.0181216 0.235098 0.427911 0.427696 0.216089 0.378827
1128 1 0.269311 0.0613486 0.0124241 0.270479 0.392199 0.39127 0.21419 0.368629
1177 1 0.412923 0.0689104 0.0149328 0.201349 0.429992 0.414289 0.229661 0.406832
1226 1 0.557796 0.0643182 0.0163559 0.303603 0.367281 0.381987 0.215231 0.347342
1275 1 0.692646 0.0683133 0.0161415 0.300634 0.323739 0.345443 0.281662 0.329424
246 1 0.770528 0.00172885 0.0157699 0.243878 0.404887 0.403123 0.205287 0.283484
1324 1 0.839513 0.0698167 0.0186636 0.184626 0.413634 0.447073 0.166526 0.374347
1030 1 0.982531 0.0653257 0.0146245 0.211467 0.39142 0.389626 0.142996 0.405655
8 1 0.0462258 0.137807 0.0191601 0.217633 0.394713 0.388533 0.181917 0.307698
57 1 0.195076 0.136027 0.0178481 0.273281 0.385167 0.419012 0.271392 0.375441
106 1 0.34305 0.14308 0.017742 0.275359 0.326037 0.384968 0.228533 0.259489
155 1 0.481968 0.138803 0.0177939 0.265708 0.359567 0.369822 0.278531 0.430728
204 1 0.623317 0.139283 0.0158982 0.20597 0.419516 0.446188 0.163432 0.364246
253 1 0.768922 0.138723 0.0157139 0.207364 0.43017 0.416339 0.197355 0.364699
302 1 0.909427 0.138493 0.0152896 0.201838 0.40748 0.425164 0.210574 0.381559
15 1 0.0539604 0.273895 0.0155355 0.22642 0.40281 0.396474 0.223004 0.335135
1086 1 0.122949 0.202469 0.0203239 0.227694 0.344519 0.37645 0.237934 0.282671
64 1 0.196784 0.27952 0.0188638 0.209365 0.405494 0.416641 0.233184 0.366188
1135 1 0.268492 0.212672 0.0156551 0.199305 0.411661 0.437924 0.230993 0.38365
113 1 0.337667 0.283742 0.0162813 0.192134 0.405265 0.408383 0.17611 0.354096
1184 1 0.40958 0.208427 0.0163717 0.21048 0.386397 0.394484 0.240663 0.300296
162 1 0.477748 0.283997 0.0163353 0.335805 0.410798 0.460815 0.319027 0.474829
1233 1 0.55468 0.205661 0.0177031 0.25305 0.384159 0.378417 0.27721 0.335355
211 1 0.620335 0.280958 0.0171747 0.227561 0.400503 0.409634 0.215402 0.34363
1282 1 0.694193 0.207551 0.0173917 0.279179 0.377631 0.403669 0.261513 0.400044
260 1 0.767175 0.28211 0.0155278 0.218662 0.33856 0.36698 0.297327 0.362629
1331 1 0.837656 0.209466 0.0163084 0.313311 0.396138 0.402012 0.234982 0.438376
1037 1 0.976617 0.211397 0.0153215 0.25724 0.406037 0.354649 0.271895 0.401798
309 1 0.912558 0.283281 0.0156303 0.202801 0.450806 0.443934 0.247902 0.370643
1093 1 0.123957 0.347374 0.0193309 0.235576 0.357994 0.344268 0.251823 0.409325
1142 1 0.26536 0.353256 0.0169026 0.226742 0.403318 0.383074 0.234379 0.35636
1191 1 0.408266 0.35168 0.0131315 0.204605 0.395469 0.439756 0.16354 0.363293
1240 1 0.54811 0.352235 0.0150837 0.224743 0.449633 0.405604 0.276836 0.399556
1289 1 0.695695 0.352904 0.0179103 0.208178 0.405045 0.445645 0.171696 0.392791
1338 1 0.834884 0.352503 0.0140265 0.177343 0.412828 0.406953 0.163447 0.330149
1044 1 0.982423 0.349771 0.0153865 0.220855 0.403087 0.364684 0.230057 0.434762
22 1 0.0526754 0.420321 0.014581 0.251303 0.416062 0.450481 0.198748 0.399755
1100 1 0.125246 0.493648 0.0133535 0.199737 0.371781 0.351763 0.207616 0.341202
71 1 0.193598 0.420415 0.016908 0.228953 0.351236 0.415699 0.244881 0.342998
1149 1 0.265383 0.499153 0.012475 0.200046 0.369421 0.401932 0.240074 0.332938
120 1 0.334031 0.428333 0.015465 0.216065 0.3929 0.419192 0.239003 0.295767
169 1 0.479691 0.422832 0.0160199 0.231367 0.396392 0.377985 0.174896 0.393971
1198 1 0.408126 0.494305 0.0176038 0.237119 0.379385 0.420696 0.236557 0.325456
1247 1 0.549496 0.496541 0.0181058 0.254475 0.408327 0.407673 0.320274 0.328237
218 1 0.622941 0.425537 0.0164671 0.208175 0.464037 0.454906 0.151163 0.384948
1296 1 0.69251 0.495954 0.0142314 0.23132 0.413773 0.453929 0.203172 0.379435
267 1 0.764277 0.426388 0.0133475 0.211844 0.392522 0.387071 0.254076 0.37058
1345 1 0.834892 0.496572 0.015681 0.269363 0.398466 0.354233 0.243009 0.420376
316 1 0.907676 0.42169 0.0139226 0.246515 0.401934 0.42499 0.285998 0.377498
1051 1 0.982745 0.494782 0.0139784 0.272995 0.368172 0.361036 0.204875 0.36705
29 1 0.0538575 0.570367 0.0162588 0.180696 0.394295 0.398617 0.17437 0.344717
78 1 0.191913 0.568863 0.0150903 0.213838 0.380358 0.39298 0.242368 0.36422
127 1 0.336124 0.566194 0.0176314 0.218357 0.417561 0.389998 0.219894 0.415616
176 1 0.480147 0.571427 0.0134412 0.185599 0.394392 0.41638 0.185659 0.351348
225 1 0.624679 0.567579 0.0160901 0.278386 0.350482 0.405339 0.215164 0.355062
274 1 0.766321 0.5683 0.0149831 0.294181 0.372747 0.422178 0.290843 0.301931
323 1 0.905527 0.566042 0.015222 0.283107 0.373621 0.352273 0.293465 0.396113
1107 1 0.124984 0.637395 0.0165187 0.269473 0.391679 0.422968 0.18703 0.406066
1156 1 0.264034 0.634934 0.0179678 0.173534 0.445163 0.41136 0.165385 0.307986
1205 1 0.410228 0.63781 0.0151527 0.217875 0.415358 0.415779 0.2121 0.399956
1254 1 0.553117 0.64073 0.0164885 0.251611 0.362097 0.364666 0.263787 0.383138
1303 1 0.69414 0.634725 0.0128131 0.213994 0.398029 0.349597 0.21426 0.382625
1352 1 0.836752 0.639891 0.0129568 0.279267 0.338506 0.344899 0.291315 0.332915
1058 1 0.98286 0.638163 0.0158822 0.181608 0.411083 0.435594 0.211393 0.354993
36 1 0.0501883 0.707366 0.0174365 0.317083 0.380064 0.395303 0.230165 0.361348
1114 1 0.122872 0.781468 0.0158446 0.25093 0.403322 0.369327 0.215293 0.387314
85 1 0.194567 0.712482 0.0157908 0.209813 0.417815 0.442712 0.181766 0.346385
1163 1 0.265306 0.782419 0.0173896 0.193598 0.427312 0.436582 0.221126 0.359511
134 1 0.338295 0.706938 0.0190059 0.211214 0.390505 0.406823 0.244575 0.388879
1212 1 0.410499 0.786226 0.016658 0.27849 0.350729 0.393149 0.219809 0.300244
183 1 0.481753 0.712267 0.0162735 0.216331 0.389437 0.413989 0.240816 0.362009
1261 1 0.553915 0.785296 0.0191395 0.300638 0.318562 0.372638 0.300521 0.336718
232 1 0.621103 0.711724 0.0176031 0.225476 0.37304 0.402582 0.247365 0.382723
1310 1 0.696826 0.784862 0.0157291 0.325153 0.348801 0.368074 0.283179 0.368126
281 1 0.764637 0.714594 0.0140454 0.259171 0.380632 0.397029 0.259094 0.354565
1359 1 0.837698 0.782078 0.0170056 0.207173 0.395559 0.435443 0.284597 0.339901
1065 1 0.980871 0.781566 0.0167795 0.214979 0.423904 0.378705 0.178962 0.382207
330 1 0.907893 0.70929 0.0154545 0.311592 0.365811 0.397741 0.269284 0.388684
43 1 0.0509998 0.85093 0.0153812 0.252154 0.387268 0.415157 0.241349 0.359051
92 1 0.191837 0.850229 0.0163086 0.197585 0.408224 0.443004 0.148922 0.353752
141 1 0.336636 0.850923 0.0125588 0.215294 0.410452 0.419484 0.222208 0.359448
190 1 0.476782 0.85359 0.015445 0.247521 0.386076 0.357783 0.187343 0.323385
239 1 0.622763 0.850721 0.0155586 0.262253 0.432885 0.437508 0.206098 0.40468
288 1 0.767489 0.851343 0.0170955 0.217577 0.413952 0.461311 0.1788 0.341652
337 1 0.911072 0.848773 0.0144804 0.250245 0.395685 0.440842 0.239495 0.369525
1 1 0.0561816 0.994135 0.0171162 0.204542 0.416397 0.388234 0.222964 0.389361
1121 1 0.12351 0.922259 0.0147637 0.189749 0.419604 0.382528 0.200679 0.330503
50 1 0.197725 0.995157 0.0168009 0.215272 0.387082 0.441624 0.255395 0.356507
1170 1 0.26681 0.922573 0.0172202 0.192965 0.464855 0.438557 0.202944 0.414319
99 1 0.34052 0.994889 0.015711 0.266613 0.360583 0.445823 0.239185 0.32258
148 1 0.481242 0.996208 0.0164277 0.277272 0.398493 0.388122 0.29396 0.380824
1219 1 0.410607 0.922092 0.0148932 0.251509 0.415781 0.397812 0.277815 0.391636
1268 1 0.554813 0.927488 0.0181776 0.18679 0.422857 0.375007 0.241395 0.412068
197 1 0.626941 0.994668 0.0134141 0.284964 0.350527 0.363016 0.303497 0.315028
1317 1 0.694529 0.925041 0.0155108 0.206776 0.421174 0.402041 0.221682 0.41405
1366 1 0.839167 0.928778 0.0158268 0.24896 0.366873 0.403726 0.274881 0.334663
295 1 0.910754 0.992869 0.0185453 0.233125 0.4236 0.405992 0.290287 0.354456
1072 1 0.985176 0.922674 0.0156335 0.321163 0.347308 0.400949 0.182718 0.382511
393 1 0.124318 0.0691844 0.0894665 0.274331 0.423857 0.382028 0.361243 0.382404
442 1 0.270008 0.0658751 0.0866841 0.173755 0.431486 0.425271 0.18399 0.38051
491 1 0.41204 0.0645473 0.0869077 0.3184 0.378073 0.35164 0.260444 0.3483
540 1 0.557882 0.0674693 0.0869674 0.249192 0.428979 0.40486 0.300614 0.387722
589 1 0.698313 0.0717884 0.0885685 0.218482 0.351641 0.44589 0.262971 0.350007
638 1 0.838214 0.0663481 0.0877353 0.247812 0.398438 0.389152 0.245596 0.356599
344 1 0.97852 0.0624115 0.0905075 0.204157 0.436547 0.380783 0.167796 0.442584
694 1 0.0503961 0.139166 0.09175 0.21652 0.374374 0.386364 0.219289 0.292108
743 1 0.196521 0.140208 0.0894802 0.199356 0.401694 0.37968 0.18153 0.368768
792 1 0.341035 0.137908 0.0877649 0.211863 0.400499 0.433908 0.304061 0.372836
841 1 0.479236 0.140667 0.0889413 0.256783 0.369536 0.379727 0.229791 0.358188
890 1 0.622419 0.13934 0.0896656 0.18833 0.42195 0.446506 0.18813 0.36089
939 1 0.767466 0.138103 0.086679 0.261656 0.415136 0.401616 0.267397 0.411268
988 1 0.910053 0.135508 0.0871822 0.251061 0.385454 0.407725 0.306773 0.356481
701 1 0.0487949 0.280784 0.0872687 0.197125 0.377355 0.429869 0.235515 0.358379
400 1 0.127003 0.210518 0.0892976 0.221787 0.420273 0.424445 0.234786 0.376442
750 1 0.200651 0.283524 0.0864418 0.233211 0.380376 0.360248 0.17401 0.353247
449 1 0.265919 0.209083 0.0899835 0.229268 0.39507 0.390273 0.211856 0.409104
799 1 0.34414 0.282725 0.0861661 0.211072 0.372592 0.344152 0.268899 0.339863
498 1 0.409022 0.211063 0.0873828 0.194876 0.443219 0.422193 0.166466 0.400003
848 1 0.478113 0.279 0.0857212 0.235029 0.398054 0.369165 0.264311 0.28923
547 1 0.551629 0.211613 0.0878854 0.274829 0.431156 0.438382 0.18872 0.397397
897 1 0.622005 0.281645 0.0873802 0.254067 0.387762 0.408349 0.310883 0.362144
596 1 0.691771 0.209363 0.0888632 0.234339 0.389625 0.379951 0.292074 0.369809
946 1 0.762006 0.284479 0.0847929 0.269124 0.39315 0.400794 0.211649 0.406903
645 1 0.8368 0.20813 0.0867506 0.263721 0.395314 0.358998 0.199631 0.390639
351 1 0.979063 0.207369 0.087077 0.267825 0.401616 0.438184 0.310015 0.416033
995 1 0.909775 0.280531 0.0870114 0.250781 0.43294 0.424524 0.190122 0.399914
407 1 0.122284 0.35759 0.0858596 0.275608 0.364826 0.361477 0.311274 0.33127
456 1 0.267417 0.352927 0.0868611 0.244065 0.455069 0.466448 0.230621 0.413519
505 1 0.409433 0.35429 0.0891329 0.239062 0.42545 0.422127 0.256317 0.359795
554 1 0.548608 0.352325 0.0869328 0.328613 0.366056 0.404479 0.28682 0.379002
603 1 0.696112 0.358409 0.0875498 0.238701 0.385876 0.389492 0.288206 0.356239
652 1 0.833833 0.353532 0.0840388 0.264618 0.407489 0.428793 0.194428 0.379314
358 1 0.981289 0.351824 0.0860654 0.183746 0.451647 0.41054 0.244003 0.377814
708 1 0.0494237 0.422061 0.0877521 0.227806 0.390981 0.394915 0.240095 0.392762
757 1 0.198143 0.425836 0.0888194 0.273915 0.393075 0.346862 0.229431 0.273621
414 1 0.120716 0.493232 0.0899145 0.296259 0.367243 0.325673 0.25996 0.408694
463 1 0.264434 0.492946 0.0869336 0.21108 0.415779 0.400559 0.232015 0.338296
806 1 0.339485 0.424887 0.0879497 0.204038 0.392562 0.422237 0.23847 0.364277
855 1 0.482631 0.422738 0.0864987 0.226172 0.374455 0.36865 0.246569 0.374458
512 1 0.410108 0.497951 0.087351 0.286513 0.379812 0.383678 0.269647 0.40039
561 1 0.55127 0.495079 0.0867767 0.201335 0.416762 0.41184 0.177036 0.416928
904 1 0.624492 0.424921 0.0873033 0.212323 0.384489 0.418309 0.257383 0.332849
610 1 0.69662 0.497641 0.0882105 0.206363 0.439243 0.396127 0.228074 0.384709
953 1 0.763955 0.428355 0.085696 0.304843 0.368626 0.343331 0.318676 0.360822
659 1 0.837602 0.496208 0.0887475 0.294741 0.353149 0.402005 0.257029 0.38127
1002 1 0.908301 0.422551 0.0857378 0.227805 0.373806 0.401585 0.290012 0.393349
365 1 0.979821 0.494609 0.0861995 0.21469 0.434625 0.4171 0.246051 0.375077
715 1 0.0466407 0.561584 0.0852936 0.209087 0.389735 0.376474 0.224008 0.389534
764 1 0.196167 0.570212 0.0876801 0.235976 0.368028 0.395187 0.237927 0.40172
813 1 0.333713 0.572285 0.0872812 0.166711 0.407371 0.351579 0.175489 0.310708
862 1 0.479713 0.568136 0.0888087 0.265081 0.393447 0.388629 0.294114 0.368265
911 1 0.621559 0.570161 0.0866709 0.191307 0.382113 0.381364 0.231792 0.333196
960 1 0.768663 0.567481 0.0908209 0.231118 0.405401 0.390714 0.26636 0.31465
1009 1 0.911405 0.567468 0.0862207 0.219158 0.465026 0.423815 0.229228 0.405967
421 1 0.129246 0.642547 0.0873349 0.244911 0.409221 0.355706 0.270588 0.399494
470 1 0.26518 0.639265 0.0902511 0.229096 0.399041 0.428938 0.245034 0.357891
519 1 0.408036 0.635699 0.0891146 0.224899 0.414077 0.477895 0.20936 0.42523
568 1 0.555835 0.641502 0.0863357 0.213764 0.389699 0.407635 0.180104 0.354468
617 1 0.699414 0.638905 0.086974 0.303735 0.408019 0.350707 0.282028 0.425848
666 1 0.833959 0.634672 0.0863979 0.258979 0.35707 0.419424 0.200361 0.344957
372 1 0.982304 0.636987 0.0866688 0.231345 0.39407 0.391418 0.242886 0.382287
722 1 0.0488407 0.711941 0.0896006 0.233006 0.393983 0.397356 0.214749 0.369589
428 1 0.122534 0.781678 0.0897218 0.259112 0.398092 0.456703 0.229238 0.386868
771 1 0.194909 0.710879 0.0877358 0.196736 0.415835 0.388044 0.260772 0.331855
477 1 0.266066 0.778816 0.0881548 0.209052 0.412098 0.417157 0.181333 0.359209
820 1 0.336613 0.707788 0.0875967 0.242694 0.412537 0.401618 0.174783 0.436413
526 1 0.40896 0.781023 0.0882108 0.200632 0.419014 0.404072 0.215711 0.371898
869 1 0.481247 0.71271 0.089755 0.252398 0.370276 0.392803 0.327326 0.328637
575 1 0.549108 0.782119 0.0889367 0.199164 0.415249 0.404981 0.238094 0.366229
918 1 0.6246 0.710096 0.0828345 0.210806 0.391308 0.39722 0.264954 0.320773
624 1 0.692609 0.781299 0.085261 0.218588 0.38325 0.415059 0.241452 0.359304
967 1 0.76564 0.71119 0.082842 0.29294 0.390642 0.337355 0.296645 0.365185
673 1 0.838633 0.780438 0.0868007 0.266515 0.383319 0.403703 0.205775 0.356503
379 1 0.978904 0.782132 0.0860911 0.169051 0.407879 0.409739 0.176537 0.265112
1016 1 0.909701 0.704304 0.0868342 0.186288 0.402498 0.413846 0.196288 0.352789
729 1 0.0495867 0.853857 0.0880662 0.194325 0.408097 0.420873 0.177056 0.393036
778 1 0.194536 0.859538 0.0862524 0.194923 0.40857 0.34925 0.171338 0.359737
827 1 0.336738 0.852935 0.0882028 0.219914 0.408597 0.397482 0.214657 0.368907
876 1 0.47819 0.856043 0.0866967 0.216665 0.3626 0.414575 0.215517 0.316357
925 1 0.622831 0.851126 0.0878034 0.211188 0.408835 0.449238 0.190802 0.389389
974 1 0.766983 0.850419 0.0882933 0.205041 0.403346 0.40664 0.193036 0.333918
1023 1 0.909273 0.850217 0.0881173 0.255748 0.358172 0.399557 0.212758 0.386392
687 1 0.056241 0.995311 0.0887723 0.201928 0.402719 0.410413 0.172991 0.347086
736 1 0.198016 0.993512 0.0874137 0.236678 0.417777 0.428651 0.288841 0.346421
435 1 0.12341 0.920179 0.0882099 0.264827 0.376925 0.409413 0.286948 0.37396
484 1 0.266661 0.924076 0.0887942 0.242554 0.40241 0.38914 0.272907 0.382929
785 1 0.340893 0.995463 0.0902952 0.216913 0.408241 0.38115 0.247647 0.329826
834 1 0.483958 0.997265 0.0851382 0.237848 0.418162 0.423163 0.220429 0.340426
533 1 0.407662 0.924056 0.0858215 0.175068 0.428845 0.400045 0.223273 0.329479
582 1 0.553055 0.921072 0.0862302 0.257055 0.420771 0.401112 0.267151 0.418848
883 1 0.627191 0.996716 0.0877247 0.255325 0.364576 0.425527 0.231103 0.330645
631 1 0.697065 0.924292 0.0881341 0.200135 0.412244 0.407444 0.244303 0.4122
932 1 0.7711 0.993715 0.0892949 0.266559 0.450765 0.40154 0.330231 0.41006
680 1 0.8428 0.923791 0.0885114 0.196544 0.423471 0.430332 0.202364 0.381703
981 1 0.907534 0.994854 0.0909925 0.156245 0.439665 0.408382 0.165304 0.326002
386 1 0.983133 0.924996 0.0886207 0.310458 0.333733 0.35207 0.321486 0.386418
1080 1 0.122962 0.0711014 0.160736 0.251272 0.394442 0.411672 0.207834 0.393274
51 1 0.199332 0.000305458 0.15923 0.294721 0.38334 0.359597 0.283383 0.420013
1129 1 0.270207 0.0658733 0.15569 0.215181 0.406074 0.457543 0.165113 0.345344
1178 1 0.408844 0.0636594 0.160053 0.196096 0.416338 0.380267 0.228412 0.317965
1227 1 0.553438 0.0637888 0.157486 0.194713 0.424981 0.376556 0.200401 0.37587
1276 1 0.694998 0.0697741 0.161609 0.304364 0.363873 0.369747 0.233153 0.388988
1325 1 0.834996 0.0692568 0.16045 0.21437 0.397119 0.453663 0.235333 0.371686
1031 1 0.978365 0.0683809 0.15841 0.319542 0.393027 0.413847 0.301061 0.378251
9 1 0.053861 0.142282 0.162877 0.237915 0.40108 0.392588 0.231868 0.336525
58 1 0.194609 0.137306 0.157988 0.239573 0.391646 0.361602 0.225248 0.376523
107 1 0.332552 0.137404 0.155906 0.266574 0.322631 0.330216 0.304202 0.327747
156 1 0.47987 0.143416 0.160467 0.217141 0.433075 0.379884 0.237925 0.369403
205 1 0.618958 0.139343 0.158661 0.228212 0.422686 0.411478 0.224936 0.376668
254 1 0.769803 0.13678 0.157614 0.255915 0.396471 0.367057 0.236573 0.321322
303 1 0.909309 0.137527 0.15767 0.290697 0.367987 0.416406 0.205015 0.363115
16 1 0.053572 0.284024 0.157566 0.201449 0.368617 0.428446 0.174106 0.265925
1087 1 0.123489 0.212227 0.159281 0.218009 0.42722 0.384314 0.147484 0.433792
65 1 0.193955 0.280318 0.158462 0.223229 0.428952 0.392645 0.196718 0.408171
1136 1 0.267354 0.209878 0.160523 0.233474 0.412147 0.3935 0.274044 0.370743
114 1 0.336897 0.284794 0.160775 0.181795 0.433805 0.424972 0.163813 0.367456
1185 1 0.40392 0.212058 0.160688 0.24123 0.403215 0.419335 0.191906 0.415768
163 1 0.481487 0.280125 0.162458 0.226825 0.444512 0.432649 0.214579 0.356478
1234 1 0.551131 0.216321 0.160454 0.244605 0.417147 0.397916 0.248116 0.294506
212 1 0.622881 0.282724 0.158346 0.219397 0.387274 0.429416 0.216485 0.385881
1283 1 0.695576 0.208983 0.157828 0.235698 0.416515 0.357491 0.302258 0.420916
261 1 0.766662 0.283862 0.156974 0.222016 0.422876 0.402874 0.207564 0.436144
1332 1 0.840958 0.209096 0.156988 0.196844 0.401651 0.340257 0.235773 0.265608
1038 1 0.979545 0.212358 0.157788 0.229994 0.412665 0.425749 0.177237 0.377022
310 1 0.905849 0.284589 0.156756 0.2538 0.391111 0.379398 0.25169 0.353799
1094 1 0.121576 0.351738 0.159243 0.274718 0.368255 0.359462 0.275104 0.348277
1143 1 0.267198 0.354429 0.159091 0.194776 0.431705 0.437366 0.192166 0.369451
1192 1 0.409167 0.353027 0.163357 0.297682 0.390583 0.34162 0.345774 0.396313
1241 1 0.554947 0.353524 0.158601 0.250976 0.412147 0.424048 0.276122 0.4018
1290 1 0.694825 0.356159 0.158056 0.194063 0.395334 0.403296 0.213795 0.309925
1339 1 0.836015 0.350201 0.156944 0.284348 0.352082 0.342165 0.287529 0.324502
1045 1 0.980429 0.356097 0.159814 0.296061 0.383808 0.367864 0.220188 0.367688
23 1 0.0525435 0.426517 0.159434 0.275268 0.381632 0.343885 0.292151 0.40958
72 1 0.197186 0.428421 0.157217 0.289439 0.37388 0.357376 0.244459 0.38549
1101 1 0.120537 0.495019 0.158036 0.209691 0.443921 0.43578 0.223025 0.370172
1150 1 0.264429 0.494755 0.155877 0.268096 0.380228 0.334705 0.275667 0.353117
121 1 0.337534 0.424741 0.15788 0.271456 0.45489 0.400116 0.236378 0.491416
170 1 0.476645 0.42572 0.160215 0.23374 0.437562 0.410425 0.290737 0.381793
1199 1 0.407657 0.49397 0.156991 0.303549 0.358793 0.344506 0.30614 0.339384
219 1 0.624445 0.426283 0.15934 0.286233 0.372154 0.386582 0.246327 0.363298
1297 1 0.694752 0.499508 0.158681 0.178479 0.423854 0.424727 0.150329 0.353456
268 1 0.76594 0.426719 0.157886 0.20004 0.408511 0.429452 0.187377 0.378416
1346 1 0.835354 0.496017 0.159442 0.305259 0.366816 0.358742 0.290908 0.377895
317 1 0.910366 0.425688 0.157437 0.210937 0.398508 0.359626 0.255475 0.382652
1052 1 0.980101 0.494331 0.155074 0.301664 0.373302 0.41389 0.248055 0.380003
30 1 0.0527911 0.566232 0.15559 0.228812 0.41178 0.389856 0.265046 0.311258
79 1 0.192865 0.568501 0.161364 0.242109 0.397919 0.362458 0.193296 0.358507
128 1 0.330479 0.569765 0.158491 0.243883 0.403409 0.408403 0.234837 0.347424
177 1 0.478674 0.569208 0.158496 0.242415 0.408348 0.388715 0.241974 0.345376
1248 1 0.552413 0.502226 0.160814 0.171347 0.420189 0.378748 0.20666 0.288272
226 1 0.623806 0.568866 0.157762 0.257009 0.354234 0.390386 0.258144 0.408678
275 1 0.764287 0.565115 0.157455 0.258305 0.382429 0.415073 0.260342 0.373206
324 1 0.911557 0.565189 0.157523 0.291703 0.388115 0.323784 0.354128 0.390739
1108 1 0.11964 0.638372 0.158503 0.277934 0.398775 0.41122 0.336124 0.32675
1157 1 0.264189 0.639298 0.158057 0.184348 0.390828 0.430969 0.188323 0.323569
1206 1 0.409671 0.640666 0.161908 0.220275 0.443869 0.409681 0.275154 0.380651
1255 1 0.554314 0.642231 0.156885 0.308025 0.402152 0.390393 0.324635 0.386611
1304 1 0.695782 0.642451 0.158704 0.276206 0.344962 0.357059 0.314049 0.379513
1353 1 0.835586 0.640357 0.15917 0.244155 0.437762 0.41132 0.232883 0.437811
1059 1 0.980608 0.637869 0.158168 0.304139 0.399653 0.357502 0.387084 0.378729
37 1 0.0466656 0.707599 0.159171 0.263265 0.405283 0.365506 0.284763 0.380336
1115 1 0.120515 0.783955 0.157786 0.230039 0.367778 0.427013 0.24164 0.368857
86 1 0.189945 0.711067 0.158242 0.256228 0.349451 0.358332 0.259549 0.424682
1164 1 0.267803 0.785267 0.158917 0.232234 0.401921 0.429988 0.244299 0.377086
135 1 0.339391 0.711476 0.163556 0.293298 0.336578 0.31461 0.258329 0.299778
1213 1 0.407143 0.781348 0.160149 0.200288 0.410929 0.419697 0.189518 0.387077
184 1 0.476868 0.707914 0.159388 0.233841 0.402257 0.358579 0.289527 0.418437
1262 1 0.553475 0.782952 0.157258 0.220927 0.377434 0.379567 0.275864 0.396185
233 1 0.623925 0.710612 0.158369 0.284832 0.391151 0.401237 0.273171 0.399314
1311 1 0.694427 0.784879 0.157496 0.222536 0.380546 0.34232 0.244277 0.266098
282 1 0.764448 0.709916 0.161402 0.268647 0.414803 0.385392 0.264597 0.431718
1360 1 0.837894 0.780595 0.157905 0.281846 0.406361 0.38904 0.234357 0.428298
1066 1 0.977402 0.778731 0.15972 0.246717 0.406864 0.390786 0.256231 0.455427
331 1 0.90776 0.705133 0.156774 0.308651 0.396038 0.43713 0.221549 0.373165
44 1 0.0582167 0.857294 0.161792 0.172652 0.423348 0.405808 0.157943 0.315063
93 1 0.198372 0.855856 0.158268 0.203449 0.43561 0.434151 0.260315 0.358159
142 1 0.337657 0.857915 0.160454 0.233435 0.392354 0.437978 0.250343 0.326535
191 1 0.481713 0.855897 0.161276 0.239717 0.398141 0.397177 0.253664 0.387279
240 1 0.623641 0.853179 0.161158 0.193853 0.422733 0.433958 0.217789 0.377585
289 1 0.767388 0.848986 0.157878 0.202427 0.359425 0.389708 0.21439 0.353173
338 1 0.915349 0.847726 0.157928 0.217553 0.400021 0.367186 0.203689 0.377337
2 1 0.051514 0.999204 0.159447 0.286309 0.416834 0.389991 0.304344 0.38521
1122 1 0.125699 0.924301 0.15901 0.219986 0.387483 0.447845 0.219499 0.376693
1171 1 0.267427 0.92638 0.162507 0.293182 0.422206 0.416407 0.241101 0.350203
100 1 0.337056 0.996919 0.160741 0.298142 0.391455 0.43339 0.244129 0.382695
149 1 0.478198 0.999932 0.155424 0.255139 0.360466 0.364272 0.256104 0.239889
1220 1 0.415041 0.923906 0.160531 0.262523 0.413655 0.324637 0.233488 0.305403
1269 1 0.549298 0.926326 0.155066 0.251302 0.380808 0.343749 0.251065 0.338645
198 1 0.625 0.990647 0.160648 0.235817 0.369337 0.386377 0.241034 0.402028
1318 1 0.693701 0.923712 0.15969 0.255112 0.406476 0.443255 0.241691 0.36198
247 1 0.770141 0.993101 0.160349 0.212904 0.392685 0.388724 0.188352 0.35404
1367 1 0.840383 0.924575 0.161392 0.243163 0.410528 0.435071 0.228288 0.400704
296 1 0.911804 0.995652 0.158542 0.228737 0.387783 0.37661 0.261287 0.358314
1073 1 0.98231 0.923746 0.156905 0.236407 0.375453 0.399411 0.240457 0.307529
394 1 0.125288 0.0697762 0.230149 0.213236 0.416717 0.418794 0.283682 0.388198
737 1 0.1934 0.000441715 0.229104 0.238668 0.390562 0.391923 0.187265 0.343974
443 1 0.270599 0.067838 0.234417 0.250012 0.320731 0.366582 0.24842 0.272394
492 1 0.408353 0.066247 0.229945 0.266396 0.376605 0.433362 0.25417 0.326831
541 1 0.548252 0.0706652 0.231125 0.18909 0.418687 0.381108 0.224589 0.344456
590 1 0.694477 0.0719151 0.229036 0.24357 0.398463 0.403441 0.296359 0.359859
639 1 0.837142 0.0666851 0.227357 0.315758 0.361561 0.329795 0.258496 0.386688
345 1 0.981831 0.0632636 0.232046 0.190274 0.359502 0.39941 0.210783 0.353031
695 1 0.0540922 0.137445 0.230008 0.216021 0.394577 0.418249 0.286737 0.369216
744 1 0.198878 0.13857 0.233329 0.179078 0.40349 0.363074 0.201569 0.347105
793 1 0.341599 0.137822 0.232017 0.241443 0.332126 0.416541 0.246633 0.303956
842 1 0.47589 0.14092 0.231492 0.188964 0.446482 0.40899 0.220074 0.402387
891 1 0.619284 0.1423 0.22745 0.211677 0.422103 0.415914 0.190109 0.385518
940 1 0.76568 0.13669 0.230822 0.236571 0.366173 0.395347 0.241614 0.414489
989 1 0.905891 0.137031 0.228509 0.216174 0.397432 0.42887 0.202916 0.309469
702 1 0.0518354 0.281743 0.229957 0.23891 0.416034 0.45592 0.212776 0.358182
401 1 0.12262 0.211608 0.231921 0.186996 0.436927 0.420395 0.207547 0.372307
751 1 0.195172 0.280068 0.226192 0.234779 0.36626 0.331542 0.224691 0.374335
450 1 0.267369 0.21319 0.231992 0.22902 0.388409 0.383214 0.299261 0.343527
800 1 0.338116 0.287214 0.233859 0.218318 0.369825 0.400425 0.222803 0.289853
499 1 0.401445 0.21104 0.229646 0.222523 0.33025 0.396549 0.280145 0.317865
849 1 0.48338 0.284032 0.232993 0.243704 0.383432 0.366454 0.245674 0.354488
548 1 0.557835 0.214289 0.232337 0.28845 0.336341 0.401154 0.309364 0.314486
898 1 0.627743 0.284096 0.228942 0.21195 0.439343 0.394572 0.254521 0.383537
597 1 0.695751 0.21046 0.228128 0.237642 0.381727 0.34908 0.263667 0.427382
947 1 0.762163 0.282725 0.225197 0.185802 0.397228 0.390161 0.175506 0.346386
646 1 0.835868 0.207545 0.228155 0.342533 0.349176 0.370513 0.366812 0.430898
352 1 0.980917 0.212159 0.229829 0.202868 0.380582 0.401554 0.246594 0.350601
996 1 0.905617 0.282964 0.226044 0.211044 0.427359 0.438411 0.19735 0.391309
408 1 0.12536 0.356293 0.227265 0.272566 0.424666 0.389296 0.218991 0.380568
457 1 0.264499 0.35894 0.231274 0.224235 0.415715 0.368249 0.244059 0.386782
506 1 0.406936 0.352855 0.232771 0.264147 0.400126 0.39686 0.29764 0.373902
555 1 0.554728 0.354396 0.230863 0.322835 0.40818 0.375131 0.316854 0.421613
604 1 0.692642 0.351371 0.228837 0.284244 0.358729 0.354116 0.308444 0.359324
653 1 0.837397 0.352999 0.230094 0.166306 0.422873 0.428093 0.169428 0.346082
359 1 0.977229 0.353428 0.230187 0.285544 0.403418 0.395408 0.241045 0.372876
709 1 0.0535049 0.424562 0.228547 0.268221 0.36582 0.40176 0.255997 0.430963
758 1 0.195512 0.429733 0.231109 0.200348 0.38904 0.400989 0.228248 0.348479
415 1 0.12658 0.497875 0.229734 0.208511 0.367359 0.410263 0.247321 0.410675
464 1 0.271025 0.499006 0.228774 0.230496 0.400291 0.350103 0.256165 0.389648
807 1 0.34208 0.427903 0.229626 0.228889 0.390376 0.350307 0.294713 0.415643
856 1 0.478816 0.42401 0.229935 0.19867 0.436066 0.421301 0.23047 0.385267
513 1 0.409872 0.49498 0.229499 0.213543 0.426439 0.397373 0.184135 0.390189
562 1 0.554472 0.49618 0.233082 0.230246 0.366939 0.444805 0.239318 0.338817
905 1 0.624954 0.427229 0.231073 0.197383 0.387949 0.388424 0.236223 0.330036
611 1 0.693883 0.499626 0.230519 0.286851 0.349874 0.412953 0.246941 0.353994
954 1 0.767817 0.424272 0.231455 0.278521 0.389755 0.433634 0.262811 0.406604
660 1 0.839316 0.494099 0.233537 0.161747 0.455701 0.409222 0.197757 0.349813
1003 1 0.906141 0.42602 0.230052 0.203397 0.355949 0.402861 0.218373 0.314178
366 1 0.975321 0.49576 0.22825 0.201979 0.390379 0.405193 0.265918 0.325413
716 1 0.0518808 0.562855 0.230693 0.283792 0.428137 0.427692 0.282471 0.347362
765 1 0.196901 0.569478 0.231352 0.263016 0.409989 0.416389 0.247322 0.38183
814 1 0.333059 0.568258 0.225906 0.252705 0.352105 0.356613 0.251187 0.414955
863 1 0.483736 0.56753 0.227369 0.240188 0.377427 0.382492 0.270458 0.352443
912 1 0.622717 0.569039 0.224546 0.178862 0.355774 0.297391 0.269454 0.31796
961 1 0.765962 0.568052 0.231481 0.224678 0.380158 0.384653 0.244937 0.374057
1010 1 0.907359 0.567291 0.233585 0.244953 0.402102 0.399481 0.179115 0.381457
422 1 0.12437 0.638302 0.235085 0.180246 0.383131 0.36047 0.156616 0.312836
471 1 0.262255 0.640028 0.231413 0.249109 0.371652 0.440305 0.300186 0.330955
520 1 0.4089 0.640989 0.232634 0.264744 0.40013 0.402821 0.28441 0.416542
569 1 0.55078 0.641691 0.231686 0.252687 0.412125 0.38017 0.267548 0.341065
618 1 0.692829 0.638194 0.231793 0.191944 0.374662 0.362522 0.245498 0.346258
667 1 0.835314 0.64025 0.231175 0.228895 0.365764 0.350159 0.252605 0.387818
373 1 0.977531 0.636647 0.233109 0.18301 0.383394 0.424331 0.178516 0.310435
723 1 0.0511676 0.701879 0.232544 0.277366 0.368455 0.351029 0.219696 0.366438
429 1 0.121907 0.779874 0.228158 0.186934 0.422034 0.394723 0.221108 0.361128
772 1 0.195173 0.708503 0.23199 0.19355 0.420824 0.411693 0.232285 0.38635
478 1 0.266886 0.781991 0.229616 0.242335 0.407229 0.425646 0.222889 0.399466
821 1 0.33315 0.710893 0.23422 0.202182 0.409645 0.41132 0.255762 0.349759
527 1 0.410762 0.783983 0.232553 0.251362 0.401224 0.425335 0.230951 0.378372
870 1 0.480179 0.710626 0.23148 0.267795 0.365646 0.437196 0.199221 0.355199
576 1 0.553941 0.781558 0.231793 0.291886 0.369789 0.378663 0.246281 0.354234
919 1 0.621591 0.708745 0.232516 0.232598 0.413591 0.399923 0.259583 0.3929
625 1 0.697092 0.784815 0.229386 0.263595 0.413698 0.386238 0.216387 0.422032
968 1 0.764066 0.714063 0.233578 0.212756 0.386089 0.384987 0.214205 0.361305
674 1 0.838923 0.781439 0.231967 0.258599 0.447218 0.392893 0.289013 0.349988
380 1 0.98309 0.779342 0.232701 0.248213 0.401643 0.347066 0.293148 0.420789
1017 1 0.906482 0.706445 0.236003 0.245395 0.35104 0.398039 0.290567 0.347535
730 1 0.0540647 0.852281 0.230782 0.237455 0.411854 0.396732 0.252587 0.380791
779 1 0.19481 0.85391 0.229486 0.214902 0.389604 0.375942 0.245974 0.408137
828 1 0.334601 0.855141 0.231201 0.19684 0.411251 0.422949 0.224687 0.309106
877 1 0.476225 0.85403 0.229316 0.217818 0.341677 0.331928 0.277181 0.33508
926 1 0.628141 0.852695 0.229467 0.275707 0.383549 0.352297 0.216793 0.399675
975 1 0.765369 0.851827 0.230035 0.22008 0.440789 0.444406 0.230174 0.424551
1024 1 0.91345 0.852603 0.230984 0.229207 0.3481 0.375531 0.255908 0.319118
688 1 0.0527016 0.995861 0.230032 0.274862 0.372837 0.414125 0.226326 0.350693