LAMMPS (29 Oct 2020)
  using 64 OpenMP thread(s) per MPI task
#Initialization----------
units       real
boundary p p p
atom_style  full
pair_style   hybrid lj/charmm/coul/long 9.9 10. buck/coul/long 9.9 10.
bond_style      harmonic
angle_style     harmonic
special_bonds   amber
dihedral_style  charmm
kspace_style pppm 1.0e-4
kspace_modify diff ad

#Reading data file(with bonded interactions) and potential file(non bonded)------------
read_data    NPT777_aniso.data
Reading data file ...
  orthogonal box = (-0.89082456 0.35542204 1.9517850) to (61.441406 62.584315 89.906793)
  1 by 1 by 1 MPI processor grid
  reading atoms ...
  16464 atoms
  reading velocities ...
  16464 velocities
  scanning bonds ...
  4 = max bonds/atom
  scanning angles ...
  6 = max angles/atom
  scanning dihedrals ...
  9 = max dihedrals/atom
  reading bonds ...
  9604 bonds
  reading angles ...
  16464 angles
  reading dihedrals ...
  12348 dihedrals
Finding 1-2 1-3 1-4 neighbors ...
  special bond factors lj:    0.0      0.0      0.5     
  special bond factors coul:  0.0      0.0      0.8333333333333334
     4 = max # of 1-2 neighbors
     3 = max # of 1-3 neighbors
     6 = max # of 1-4 neighbors
     7 = max # of special neighbors
  special bonds CPU = 0.008 seconds
  read_data CPU = 0.203 seconds
#read_restart restart.txt
include dlpoly2lammps.nonbonding
 pair_coeff           1           3 lj/charmm/coul/long   1.4000000000000000E-002   2.2645400000000002
 pair_coeff           2           3 lj/charmm/coul/long   5.7400000000000000E-002   2.7500000000000000
 pair_coeff           3           3 lj/charmm/coul/long   1.5699999999999999E-002   1.0690999999999999
 pair_coeff           3           4 lj/charmm/coul/long   5.1700000000000003E-002   2.1595000000000000
 pair_coeff           4           4 lj/charmm/coul/long  0.17000000000000001        3.2500000000000000
 pair_coeff           3           5 lj/charmm/coul/long   4.1399999999999999E-002   2.2343999999999999
 pair_coeff           4           5 lj/charmm/coul/long  0.13639999999999999        3.3248000000000002
 pair_coeff           5           5 lj/charmm/coul/long  0.10940000000000000        3.3997000000000002
 pair_coeff           1           6 lj/charmm/coul/long   1.4000000000000000E-002   2.7099899999999999
 pair_coeff           2           6 lj/charmm/coul/long   5.7400000000000000E-002   3.1000000000000001
 pair_coeff           3           6 lj/charmm/coul/long   1.5699999999999999E-002   1.5145000000000000
 pair_coeff           4           6 lj/charmm/coul/long   5.1700000000000003E-002   2.6050000000000000
 pair_coeff           5           6 lj/charmm/coul/long   4.1399999999999999E-002   2.6798000000000002
 pair_coeff           6           6 lj/charmm/coul/long   1.5699999999999999E-002   1.9600000000000000
 pair_coeff           1           1 buck/coul/long   70359906.629702002       0.13125800000000001        0.0000000000000000
 pair_coeff           1           2 buck/coul/long   103496.13301000001       0.32173700000000000        0.0000000000000000
 pair_coeff           2           2 buck/coul/long   22793.338582000000       0.48221700000000001        696.94954199999995
 pair_coeff           1           4 buck/coul/long   32690390.937995002       0.15094700000000000        0.0000000000000000
 pair_coeff           2           4 buck/coul/long   112936.71421300001       0.34242600000000001        0.0000000000000000
 pair_coeff           1           5 buck/coul/long   32690390.937995002       0.15094700000000000        0.0000000000000000
 pair_coeff           2           5 buck/coul/long   112936.71421300001       0.34242600000000001        0.0000000000000000

group lead type 1
1372 atoms in group lead
group iodine type 2
4116 atoms in group iodine
group methylammonium molecule <> 5489 6860
10976 atoms in group methylammonium


timestep 1

############ ---------- Define Settings ------------------------------------------#####################
compute csym all centro/atom fcc
compute eng all pe/atom
compute stress all stress/atom NULL virial
compute eatoms all reduce sum c_eng
compute stress1 all reduce sum c_stress[1]
compute stress2 all reduce sum c_stress[2]
compute stress3 all reduce sum c_stress[3]
compute stress4 all reduce sum c_stress[4]
compute stress5 all reduce sum c_stress[5]
compute stress6 all reduce sum c_stress[6]

reset_timestep 0
timestep 1

##### Store cell length for strain calculations
variable tmpx equal "lx"
variable L0x equal ${tmpx}
variable L0x equal 62.3322301271326
print "Initial Length in x, L0x: ${L0x}"
Initial Length in x, L0x: 62.3322301271326

variable tmpy equal "ly"
variable L0y equal ${tmpy}
variable L0y equal 62.2288929287961
print "Initial Length in y, L0y: ${L0y}"
Initial Length in y, L0y: 62.2288929287961

variable tmpz equal "lz"
variable L0z equal ${tmpz}
variable L0z equal 87.9550080823369
print "Initial Length in z, L0z: ${L0z}"
Initial Length in z, L0z: 87.9550080823369

thermo 50

#######------Deformation------######
fix 3 all npt temp 300 300 100 y 1 1 1000 z 1 1 1000 drag 1
variable srate equal 1.0e10
variable srate1 equal "v_srate / 1.0e15"
fix 4 all deform 1 x erate ${srate1} units box remap x
fix 4 all deform 1 x erate 1e-05 units box remap x

compute msdpb lead msd
compute msdi iodine msd
compute msdma methylammonium msd

compute myRDF all rdf 20 1 1 2 2 1 2 1 4 1 5 2 4 2 5 4 5
fix 2 all ave/time 1 1000 1000 c_myRDF[*] file stress.rdf mode vector

########-----output strain and stress info to file----#######
variable strainx equal "(lx - v_L0x)/v_L0x"
variable strainy equal "(ly - v_L0y)/v_L0y"
variable strainz equal "(lz - v_L0z)/v_L0z"
variable p1 equal "-pxx *1.01325/10000"
variable p2 equal "-pyy *1.01325/10000"
variable p3 equal "-pzz *1.01325/10000"
variable p4 equal "-pxy *1.01325/10000"
variable p5 equal "-pyz *1.01325/10000"
variable p6 equal "-pxz *1.01325/10000"
variable vonmises equal "sqrt(((v_p1-v_p2)^2+(v_p2-v_p3)^2+(v_p1-v_p3)^2+6*(v_p4^2+v_p5^2+v_p6^2))/2)"


dump 6 all custom 5000 deform.dump id element type mass xs ys zs c_csym c_eng q fx fy fz c_stress[1] c_stress[2] c_stress[3] c_stress[4] c_stress[5] c_stress[6]
dump_modify 6 element Pb I H N C H
thermo_style custom v_strainx v_strainy v_strainz step temp lx ly lz v_p1 v_p2 v_p3 v_p4 v_p5 v_p6 v_vonmises ke pe enthalpy etotal evdwl ecoul elong epair ebond eangle edihed emol press vol c_msdpb[4] c_msdi[4] c_msdma[4]
run	100000
PPPM initialization ...
  using 12-bit tables for long-range coulomb (../kspace.cpp:328)
  G vector (1/distance) = 0.27077963
  grid = 40 40 60
  stencil order = 5
  estimated absolute RMS force accuracy = 0.037815385
  estimated relative force accuracy = 0.00011387991
  using double precision KISS FFT
  3d grid and FFT values/proc = 148003 96000
Neighbor list info ...
  update every 1 steps, delay 10 steps, check yes
  max neighbors/atom: 2000, page size: 100000
  master list distance cutoff = 12
  ghost atom cutoff = 12
  binsize = 6, bins = 11 11 15
  5 neighbor lists, perpetual/occasional/extra = 3 2 0
  (1) pair lj/charmm/coul/long, perpetual, skip from (5)
      attributes: half, newton on
      pair build: skip
      stencil: none
      bin: none
  (2) pair buck/coul/long, perpetual, skip from (5)
      attributes: half, newton on
      pair build: skip
      stencil: none
      bin: none
  (3) compute centro/atom, occasional
      attributes: full, newton on
      pair build: full/bin
      stencil: full/bin/3d
      bin: standard
  (4) compute rdf, occasional, copy from (5)
      attributes: half, newton on
      pair build: copy
      stencil: none
      bin: none
  (5) neighbor class addition, perpetual
      attributes: half, newton on
      pair build: half/bin/newton
      stencil: half/bin/3d/newton
      bin: standard
WARNING: Inconsistent image flags (../domain.cpp:812)
Per MPI rank memory allocation (min/avg/max) = 1147.0 | 1147.0 | 1147.0 Mbytes
v_strainx v_strainy v_strainz Step Temp Lx Ly Lz v_p1 v_p2 v_p3 v_p4 v_p5 v_p6 v_vonmises KinEng PotEng Enthalpy TotEng E_vdwl E_coul E_long E_pair E_bond E_angle E_dihed E_mol Press Volume c_msdpb[4] c_msdi[4] c_msdma[4] 
-1.1399283e-16 4.5672851e-16 -4.8470877e-16        0    300.18499     62.33223    62.228893    87.955008 -0.017292816 -0.039250608 -0.017757826 -0.0035435147 -0.021960714  0.017474288  0.053597489    14731.001   -962944.29    -946997.1   -948213.29    106265.56   -338438.27   -738443.18   -970615.88    2933.6517    4177.6395    560.30762    7671.5989    244.43211    341165.66            0            0            0 
      0.0005 1.5682604e-05 6.2894307e-05       50    299.41824    62.363396    62.229869     87.96054 -0.012305975  0.017450578  0.011070089 -0.0030560931 -0.0023132645 0.0012965957  0.028025309    14693.374   -962914.89   -948487.08   -948221.52    106085.82   -338094.29   -738431.37   -970439.85    2973.5644    3993.6538    557.73385    7524.9521    -53.34219    341363.07 0.0092560461  0.015256614   0.25238439 
       0.001 -4.9191936e-05 0.00014661355      100    299.27001    62.394562    62.225832    87.967903  0.021099457 0.0015707415  0.031270328 -0.010272398 -0.010806412 -0.018529571  0.048789122      14686.1   -962910.33   -949108.12   -948224.23    105748.87   -337811.67    -738437.4    -970500.2    2902.4122    4131.9169    555.53736    7589.8665   -177.45053     341540.1  0.033157095  0.053478873   0.63119554 
      0.0015 -0.00024356646 1.7847878e-05      150    298.63817    62.425728    62.213736    87.956578  0.068781705  0.018135348 0.0053069282 -0.007826865 -0.031584405  0.018115119  0.086834961    14655.093   -962861.92    -949718.3   -948206.83    105692.13   -337726.09   -738422.84    -970456.8    2913.2089    4149.3682     532.3049     7594.882   -303.39331    341600.29  0.063652017  0.099151807   0.97545233 
       0.002 -0.00054247441 -0.00032690065      200    302.20796    62.456895    62.195135    87.926256  0.077539118 -0.006394206 -0.010950973 -0.016755829 -0.0022019921  0.014469027  0.094514071    14830.274   -963031.55   -949187.66   -948201.27    105762.33   -337864.42   -738428.23   -970530.32    2921.2144    4035.8187     541.7336    7498.7666   -198.02267    341550.86  0.093206271    0.1390719    1.1608213 
      0.0025 -0.00085409442 -0.00065154742      250    301.15144    62.488061    62.175744    87.897701  0.058759982 0.0098208899  0.025135252 -0.0012715386  0.020375378 -0.021877603  0.067574407    14778.427   -962992.48   -949749.55   -948214.06    105675.28   -337752.02   -738434.02   -970510.76    2906.0539    4063.3354     548.8903    7518.2796   -308.30208    341503.81   0.11641769   0.16832867    1.2996076 
       0.003 -0.0010326241 -0.00092001736      300    299.65921    62.519227    62.164634    87.874088  0.074183164 -0.031314147 -0.036761758 -0.014167943 -0.019207052 -0.0057429688   0.11636983    14705.199   -962933.75   -948328.62   -948228.55    105698.43   -337735.85   -738431.53   -970468.95    2849.6528    4139.1324    546.40769    7535.1928   -20.091321    341521.31   0.13179805   0.18918669    1.3945943 
      0.0035 -0.000954512 -0.0011442549      350    298.27717    62.550393    62.169495    87.854365   0.11240976 -0.027830173 0.0013229194  0.022497131  0.016279376 -0.012657557   0.13864621    14637.378    -962862.8   -949633.46   -948225.42    105758.59   -337800.81   -738427.93   -970470.16    2880.7374    4161.2544     565.3681    7607.3599   -282.59726    341641.58   0.14070769   0.20558901    1.4737774 
       0.004 -0.00060336301 -0.001337648      400     302.5972    62.581559    62.191346    87.837355  0.081467716 -0.0081607806  0.013758811 -0.0091939193  0.027807508  0.009476849  0.096911841    14849.375   -963069.34   -949648.01   -948219.97     105494.4   -337575.17   -738434.37   -970515.14     2839.779    4055.2199    550.79788    7445.7968   -286.42404    341865.75   0.14518819   0.22060594    1.5371147 
      0.0045 -0.00018471578 -0.0015806164      450    299.75556    62.612725    62.217398    87.815985   0.13055634  0.024990899 -0.011962104 -0.0060277022 -0.0051429145 0.0013944204   0.12885934    14709.928   -962931.52   -950578.25    -948221.6     105243.2    -337397.7    -738419.2    -970573.7    2931.2016    4184.3812    526.59569    7642.1785   -472.35837    342096.03   0.14828132       0.2366    1.6098611 
       0.005 0.00020133041 -0.0019712664      500    300.18454    62.643891    62.241421    87.781625   0.16512312 0.0078984516   0.02520253  0.010403334 0.0036773764  0.022302126    0.1554214    14730.979   -962965.34    -951489.4   -948234.36    105050.84   -337104.77   -738406.77    -970460.7    2925.4762    4029.8286    540.05308    7495.3578    -652.1066    342264.49   0.15244648   0.25315158    1.7099637 
      0.0055 0.00035885255 -0.0024719731      550    299.99972    62.675057    62.251224    87.737586   0.13336793  0.039299274 0.0030320524  0.018765588  0.014554777 4.5964896e-05   0.12356296    14721.909   -962943.04   -951106.73   -948221.13    105020.28   -337060.69   -738408.75   -970449.16    2941.9534    4025.7929    538.37582    7506.1221   -578.00562    342316.88   0.15818128   0.26832979    1.8333757 
       0.006 0.00012882854 -0.0029434877      600    298.68428    62.706224     62.23691    87.696114   0.14879278  0.052344553  -0.02253058 -0.033312294 -0.010887739 0.0069376678    0.1611188    14657.357   -962845.98   -951121.37   -948188.62    105106.28   -337040.63   -738401.61   -970335.97    2895.8404    4046.5909    547.56208    7489.9934   -587.57052     342246.5   0.16566958   0.28123581    1.9537212 
      0.0065 -0.0004473214 -0.0032700726      650    299.86469     62.73739    62.201057    87.667389    0.1523554 0.0059870622 -0.010611985    0.0136353 -0.0085072214 0.00025498982    0.1578096    14715.283   -962864.06   -950573.55   -948148.78    105033.17   -337096.07   -738410.66   -970473.57    2889.6788    4171.7877    548.04224    7609.5087   -485.99547    342107.25   0.17381075   0.29122234    2.0523249 
       0.007 -0.0010829266 -0.0034865359      700    301.16613    62.768556    62.161504     87.64835   0.18042426 -0.018749738  0.015709734 0.0023345465  0.011048317  0.010484252   0.18629711    14779.148    -962914.6   -951045.91   -948135.45    105201.01   -337221.79   -738419.82   -970440.59    2871.9892     4101.021     552.9826    7525.9928   -583.54884    341985.26   0.18184045   0.29946177    2.1421967 
      0.0075 -0.001407953 -0.0035716344      750    299.51248    62.799722    62.141278    87.640865   0.16105146 -0.053676277 -0.026761518 -0.036378757  0.015795643  -0.01646801    0.2158365    14697.999   -962831.83   -949456.62   -948133.83     105337.8      -337321   -738395.73   -970378.93    2862.2368    4147.9403    536.92282    7547.0999   -265.19834    342014.53   0.18787774   0.30596567    2.2103198 
       0.008 -0.001324393 -0.003496933      800    300.26769    62.830888    62.146477    87.647435   0.20562851 0.0019495269 0.0030724208  0.026036213 -0.013951025 -0.002776293   0.20951933    14735.059   -962852.87   -951576.64   -948117.81    104956.37   -336906.16   -738409.57   -970359.36    2871.5493    4078.0047    556.94391    7506.4979   -692.98612    342238.55   0.18988745    0.3092204    2.2491831 
      0.0085 -0.0011201872 -0.0034742312      850    299.11885    62.862054    62.159185    87.649432   0.17918554 -0.0042959465  0.020627156  0.015255347 0.0032118982  0.022722192   0.17886227    14678.682   -962765.39   -951299.37   -948086.71    104614.85   -336616.84   -738405.52    -970407.5    2928.7818    4171.9612    541.36564    7642.1087   -643.20011    342486.13   0.18997663    0.3102633    2.2984576 
       0.009 -0.00096566948 -0.0037737416      900    300.58041     62.89322      62.1688    87.623089   0.23696689  0.015816267  0.056614191 -0.041917852 -0.0076390108 -0.0075115844   0.21717559    14750.405   -962840.25   -953175.53   -948089.85     104678.2   -336663.34   -738410.19   -970395.34     2903.157    4087.2847    564.64405    7555.0857   -1017.8381    342605.93   0.19199656   0.31091575    2.3637785 
      0.0095 -0.00087656613 -0.0043349127      950    300.56389    62.924386    62.174345    87.573731     0.172799 -0.031158601 -0.036836008  0.018740324 -0.0089402292 0.0073641945   0.21034486    14749.594   -962831.23   -949804.39   -948081.64    104805.79   -336773.04    -738408.5   -970375.75    2883.5768    4091.1365    569.80624    7544.5195   -344.77962    342613.18   0.19691065   0.31144046    2.4339365 
        0.01 -0.00087949965 -0.0048645763     1000    300.44202    62.955552    62.174163    87.527144   0.24141217  0.027245938 -0.00022132839 0.0078938188  -0.01476295  0.007844707   0.23136459    14743.614   -962800.12   -952468.82   -948056.51       104871   -336877.76   -738397.65   -970404.42    2902.3767    4163.3936    538.52572     7604.296   -883.08834    342599.51   0.20290922   0.31144408    2.5026653 
      0.0105 -0.00096774885 -0.0052478436     1050    302.62136    62.986719    62.168671    87.493434   0.21108281  0.029082359 -0.010355107 0.00066039896 -0.018000136 -0.0068754708    0.2072975    14850.561   -962904.21   -951831.13   -948053.65     104829.6   -336874.11   -738410.84   -970455.35    2864.5476    4132.1513    554.44174    7551.1407   -756.01631    342606.84   0.20851221   0.31185686    2.5813345 
       0.011 -0.0011164341   -0.0055892     1100    302.27439    63.017885    62.159418     87.46341   0.19882776 -0.0065339701  -0.01329791 -0.0084229784 -0.005572206 -0.0091218417   0.21015198    14833.534   -962911.24   -951019.95   -948077.71    104830.15      -336912   -738399.34   -970481.19     2880.478     4142.066    547.40374    7569.9478   -588.85065    342607.74   0.21405588     0.314127    2.6448878 
      0.0115 -0.001215069 -0.0058503867     1150    302.16084    63.049051    62.153281    87.440437   0.23989382 -0.031635919 -0.0044672678  0.024786867 0.00042441577  0.017778696   0.26435088    14827.962   -962949.13   -951471.42   -948121.17    104730.25   -336792.17   -738405.92   -970467.84    2912.6349    4061.5396    544.54105    7518.7156   -670.41905    342653.31   0.21888938   0.31774008     2.689583 
       0.012 -0.0012684493 -0.0060134838     1200    301.57013    63.080217    62.149959    87.426092   0.26526613  0.047660473  0.016851894 -0.016016923   -0.0112578 -0.020395443    0.2395898    14798.974   -962966.13    -953590.1   -948167.15    104581.25   -336693.15      -738404    -970515.9    2869.8805    4131.7758    548.11171    7549.7681   -1084.8869    342748.13   0.22298235   0.32283488    2.7465624 
      0.0125 -0.001302316 -0.0061241925     1250    298.79139    63.111383    62.147851    87.416355   0.22655078 -0.0022398466 -0.0073881829 -0.017034807 0.0082298172  0.010788612    0.2344621    14662.612   -962847.66   -951753.42   -948185.05    104446.23   -336436.68   -738403.52   -970393.98    2885.0125    4101.1669    560.13435    7546.3137   -713.62037    342867.65   0.22834591   0.32937569     2.795133 
       0.013 -0.0013789768 -0.0062871436     1300    298.00618    63.142549    62.143081    87.402022   0.28742113 -0.0077108801  0.011681113  0.019661924 0.0042931877 -0.024941995   0.29126815     14624.08   -962800.86   -952971.37   -948176.78    104482.48   -336472.64   -738392.52   -970382.68    2859.0615    4155.0288    567.72974      7581.82   -958.60306    342954.39   0.23588791   0.33670999    2.8472504 
      0.0135 -0.0014124823 -0.0065537767     1350    299.20536    63.173715    62.140996    87.378571   0.26344475  -0.01819595  0.025589247 -0.012308017 -0.028004005  0.023812617   0.27095237    14682.927   -962830.25   -952604.58   -948147.32    104485.02   -336414.42   -738413.46   -970342.86    2810.5289    4146.2695    555.80666     7512.605   -890.98789    343020.09   0.24465239   0.34467111    2.8887735 
       0.014 -0.0013884329 -0.0068980281     1400     297.2687    63.204881    62.142492    87.348292   0.29804277  0.012050064 0.0099457559 -0.015588901 -0.0018655327 0.0085161563   0.28871288     14587.89   -962690.24   -953370.21   -948102.35    104363.96   -336290.16   -738394.99   -970321.18    2905.2314    4153.9043    571.80778    7630.9434   -1052.8451    343078.66   0.25389798    0.3532934     2.935461 
      0.0145 -0.0014769135 -0.0072293464     1450    299.46371    63.236047    62.136986    87.319151    0.2766882 -0.011809363 -0.044765396  0.015024942 -0.035737626 0.0056777401   0.31373583    14695.605   -962759.46   -951687.19   -948063.86    104349.66   -336335.16   -738407.07   -970392.57    2918.7747    4109.9716    604.36647    7633.1128   -724.11693    343102.91   0.26245302   0.36238562    2.9773032 
       0.015 -0.0016494115 -0.0075156083     1500    297.28977    63.267214    62.126252    87.293973   0.30413947  0.029276555  0.025920851 -0.017587348 0.0062404085 -0.002535776   0.27847317    14588.923   -962621.35   -953947.74   -948032.42    104392.43   -336322.54   -738406.56   -970336.67    2943.2975    4211.8835    560.14533    7715.3263   -1182.1264    343113.75   0.27039453   0.37136163    3.0176728 
      0.0155 -0.0017619076 -0.0076959371     1550    300.19012     63.29838    62.119251    87.278112   0.29213292 -0.010391447 -0.033227154 -0.006434274 -2.64671e-05 -0.0060187646   0.31493443    14731.253   -962745.39   -952105.93   -948014.13    104279.17   -336198.11   -738396.99   -970315.94    2907.8044     4100.536    562.21074    7570.5511   -817.54854    343181.72   0.27737702   0.37974459    3.0583708 
       0.016 -0.0019265395 -0.0077105499     1600    299.05874    63.329546    62.109007    87.276827   0.32372064 -0.0064279717 -0.017906268 0.0099053607 -0.021348306 0.00041124926    0.3384989    14675.732   -962670.05   -952925.26   -947994.32    104136.29   -336025.63   -738401.39   -970290.73    2919.2089    4118.7523    582.71809    7620.6793   -984.90466    343289.01   0.28320776    0.3872332    3.0940788 
      0.0165 -0.0022295208 -0.0076299044     1650    298.45575    63.360712    62.090152     87.28392   0.38613058  0.036825113  0.014173547 -0.019756153   -0.0269518 -0.0089752297   0.36610312    14646.142   -962621.41    -955176.8   -947975.27    104065.55   -335962.74   -738374.44   -970271.63    2945.6667    4111.7321    592.81964    7650.2185   -1438.0434     343381.6   0.28920314   0.39373414    3.1266815 
       0.017 -0.0024873819 -0.0075748686     1700    302.33878    63.391878    62.074106     87.28876   0.33646035 -0.050214766 -0.016532006 -0.0032959551 -0.021381434 -0.0057612854   0.37300342    14836.694   -962798.68   -952406.69   -947961.98    103971.46   -335904.58   -738408.13   -970341.25     2895.908    4071.4256    575.24236     7542.576   -887.28867    343480.76   0.29663147    0.3997373    3.1621072 
      0.0175 -0.0025894053 -0.0076590054     1750    299.26874    63.423044    62.067757     87.28136   0.37712417   0.03836535  0.045526677  0.028245138  0.011620588  0.014048883   0.34025498    14686.038    -962648.9   -955562.43   -947962.87    103815.97   -335709.98   -738388.99      -970283    2913.4175    4142.4315    578.24202    7634.0911   -1516.6254    343585.35   0.30524342   0.40733589    3.2024636 
       0.018 -0.0026593612 -0.0079883953     1800    301.10066     63.45421    62.063404    87.252389   0.39049799 -0.041246323 -0.013555658 -0.022602931   0.02231403 0.0067957435    0.4223501    14775.935   -962746.24   -953504.54   -947970.31    103861.27   -335772.76   -738379.91   -970291.39    2857.3173    4134.4547    553.37902     7545.151    -1104.354    343615.99   0.31375067   0.41880859     3.224668 
      0.0185 -0.0025992306 -0.0084400013     1850    301.58313    63.485376    62.067146    87.212668   0.37339064 -0.047322995   0.04380769 -0.0029184611   0.00671151 3.8580682e-05   0.38356946    14799.612   -962773.11   -954071.79    -947973.5    104076.38   -336037.02   -738406.88   -970367.51    2900.5079    4148.7762    545.11765    7594.4018   -1216.7952    343648.97   0.32128333   0.43214431    3.2614139 
       0.019 -0.0022661926 -0.0088390981     1900    298.93513    63.516542     62.08787    87.177565    0.3776751 -0.015715744 -0.063597286  0.043051371 0.0028185363 0.0098262805   0.42633193    14669.666   -962647.81   -952899.45   -947978.15    103987.23   -335836.16   -738380.95   -970229.89    2883.5525    4121.3143     577.2054    7582.0723   -981.53488    343794.04   0.32912329   0.44399074     3.308999 
      0.0195 -0.0017696838 -0.0091362356     1950     301.5639    63.547709    62.118767     87.15143   0.42017447 0.0085326316  0.047368137 -0.012262722 0.0028025151 0.0047245338   0.39435077    14798.668    -962767.5   -955826.81   -947968.83    103581.41   -335531.72   -738382.32   -970332.63    2885.2239    4122.5191    557.39285    7565.1358   -1566.1658    344030.74   0.33880139   0.45413082    3.3450343 
        0.02 -0.0013451971 -0.0094917739     2000    298.54451    63.578875    62.145183    87.120159   0.41472987  0.034889431 -0.027017747 4.2772379e-05 0.0041990437 0.0030750848   0.41437589    14650.498   -962602.05   -954930.79   -947951.55    103371.98   -335214.95   -738380.01   -970222.98    2905.7965    4178.2844    536.84589    7620.9268    -1390.251    344222.27   0.35175484   0.46474902    3.3789497 
      0.0205 -0.0011622749 -0.0099686135     2050     300.2447    63.610041    62.156566    87.078219   0.43207601  0.013773385   0.04354239  0.023743942 0.0048912622 -0.030337867   0.40979883    14733.931   -962675.81   -956025.71   -947941.88    103255.01   -335150.87    -738376.9   -970272.75    2874.0606     4184.989     537.8868    7596.9364   -1609.9738    344288.27   0.36597684   0.47697433     3.426865 
       0.021 -0.0013783628 -0.010628439     2100    300.28909    63.641207    62.143119    87.020184   0.44857401  0.048438485 -0.013125821 -0.0083915151 0.0014404296  0.010214755   0.43481395    14736.109   -962665.49   -955919.13   -947929.38    103384.17   -335186.61   -738387.03   -970189.46    2898.6571    4076.7623     548.5596     7523.979   -1591.8634    344152.91   0.37995017   0.49288705    3.4748836 
      0.0215 -0.0018911404 -0.011319775     2150    299.93067    63.672373    62.111209    86.959377   0.40196891 0.0032032365 -0.0092070173 -0.0032513313  0.031368006 -0.0021028682   0.40879542     14718.52   -962630.49   -954445.26   -947911.97     103653.3   -335449.46   -738380.23   -970176.39    2896.6996     4092.887    556.31483    7545.9014    -1302.624    343904.17   0.39376083   0.51058709    3.5296889 
       0.022 -0.0023189799  -0.01180269     2200    299.34043    63.703539    62.084585    86.916902   0.41411206 -0.036385541 0.0072623282 0.00020497441 -0.008324879 0.0022681781    0.4305966    14689.556   -962580.65   -954240.57   -947891.09    103839.07   -335663.21   -738379.62   -970203.75    2938.9823    4133.6212    550.49663    7623.1001   -1266.5148    343757.03   0.40805441   0.52496196    3.5762429 
      0.0225 -0.0025099583 -0.011938578     2250    300.76839    63.734705    62.072701     86.90495   0.46493156 -0.016873597 -0.044287253 -0.013079105 -0.008923362 -0.029064598    0.4993817     14759.63   -962647.54   -954548.22   -947887.91    103693.92   -335507.94   -738375.27   -970189.29    2900.6577    4074.8324     566.2517    7541.7418   -1328.3024    343812.09   0.42080645   0.53346318    3.6062723 
       0.023 -0.0025751347 -0.011777226     2300    300.55274    63.765871    62.068645    86.919142   0.44796535 0.0090445947  -0.03091427 -0.023973744 0.0034421807  0.014800687   0.46282163    14749.047   -962633.21   -954916.84   -947884.16    103505.17   -335372.53   -738391.45    -970258.8    2912.8317    4133.1214    579.64225    7625.5953   -1401.7458     344013.9   0.42951656   0.53747123    3.6235878 
      0.0235 -0.0025433157 -0.011463994     2350    300.49432    63.797038    62.070625    86.946692   0.47385755  0.016316185 0.0016815143  0.010011661 -0.00040981005 -0.010623936   0.46571885    14746.181   -962619.75   -955998.41   -947873.57    103301.74   -335069.31   -738383.11   -970150.68    2903.6017    4068.2394    559.08625    7530.9274    -1618.078    344302.12   0.43429691    0.5395828    3.6307272 
       0.024 -0.0025843049 -0.011185669     2400    300.20321    63.828204    62.068074    86.971173   0.49973009 0.0078673528 0.0031041502 -0.011315084  0.013632828 -0.010674224   0.49555822    14731.895   -962596.73   -956307.15   -947864.83    103060.19   -334897.47   -738381.47   -970218.75    2885.6379    4168.0447    568.33456    7622.0172   -1680.0776    344553.15   0.43824422   0.54264033    3.6415168 
      0.0245 -0.0028020536 -0.011100487     2450    301.86825     63.85937    62.054524    86.978665   0.47918289 -0.008374847  0.041032601 0.0056346007  0.030498571 -0.024631227    0.4698622    14813.603    -962679.6   -956330.15      -947866    103020.22   -334826.67   -738384.48   -970190.94    2861.3914    4058.8059    591.13706    7511.3343   -1683.8248    344675.82   0.44420065   0.54971206    3.6578077 
       0.025 -0.0030248692 -0.011332088     2500    300.52067    63.890536    62.040659    86.958294   0.50961894 0.00068133679  0.018267845   0.01175366 -0.0032287653  0.008035311   0.50101472    14747.474   -962612.08   -956605.64    -947864.6    102970.15   -334751.23   -738371.29   -970152.37    2891.0343    4097.0681     552.1903    7540.2927   -1738.8539    344686.24   0.45307061    0.5629045     3.688463 
      0.0255 -0.0030789806 -0.011891717     2550    299.27588    63.921702    62.037291    86.909072   0.50669209  -0.01040441 0.00095252668 -0.030553845 -0.0001778225 -0.015010776   0.51489981    14686.388   -962538.52      -956074   -947852.13    103067.43   -334799.85   -738359.94   -970092.36    2866.9908    4119.7265    567.12098    7553.8383   -1635.7931    344640.47   0.46505159   0.58230055    3.7146448 
       0.026 -0.0029709272 -0.012671436     2600    301.96963    63.952868    62.044015    86.840492   0.47679625 0.0059194609   0.02666458 -0.0050609719  0.010649543 -0.0059864266   0.46142335    14818.579   -962642.99   -956245.38   -947824.41    103129.44   -334959.08   -738369.35   -970198.99    2878.8417    4100.9152    576.25075    7556.0076   -1675.7309    344573.76   0.48135554    0.6044144    3.7283902 
      0.0265 -0.002825142 -0.013410227     2650    300.11751    63.984034    62.053087    86.775511    0.5285807 -0.0057020201 -0.036675037  0.024218076 -0.013840218  0.017494394   0.55336973     14727.69   -962541.81   -955851.02   -947814.12    103172.05   -334949.89   -738356.09   -970133.93    2922.3337    4073.4757    596.30267     7592.112   -1599.4856    344534.09   0.50106155   0.62292964    3.7465156 
       0.027 -0.0026348673 -0.013850785     2700    301.40813      64.0152    62.064928    86.736762   0.54773327 -0.013479542 -0.015519758 -0.042775336 -0.0095631055 0.0014800584   0.56734389    14791.024   -962601.05   -956386.63   -947810.03     103051.9   -334843.15   -738359.94   -970151.19    2938.1499    4043.4283    568.55839    7550.1366   -1706.5021    344613.73   0.51774402   0.63443183    3.7805422 
      0.0275 -0.0024322345 -0.014049342     2750     299.5522    64.046366    62.077538    86.719298   0.49676283  0.013840603  0.012660367  0.026098841 -0.0091591388 -0.0015115882   0.48588806    14699.948   -962515.51   -956471.29   -947815.56    102934.46   -334719.14   -738346.38   -970131.06     2919.953    4104.3081    591.28564    7615.5467   -1721.4041    344782.12   0.52841869   0.64371092    3.8029631 
       0.028 -0.0022976758 -0.014209873     2800    299.80619    64.077533    62.085911    86.705179   0.53068946  0.014603367 -0.023621518 -1.8410667e-05 -0.014201113  0.005217008   0.53686125    14712.412   -962518.64   -956439.57   -947806.23    102823.97   -334582.67   -738357.27   -970115.98    2913.3164     4123.093    560.93205    7597.3414   -1716.1652    344940.25   0.53711591   0.65477602    3.8128765 
      0.0285 -0.0023379438 -0.014430251     2850     301.3562    64.108699    62.083405    86.685795   0.57549833   -0.0155852    0.0263719 -0.012428605 -0.0068017252 -0.011086375   0.57211093    14788.476   -962589.37   -957505.71    -947800.9    102769.36   -334530.59   -738373.01   -970134.24    2910.3797    4076.9515    557.53705    7544.8682   -1928.7278    345016.95   0.54926026   0.66713566    3.8209833 
       0.029 -0.0025738076 -0.014680333     2900    299.18495    64.139865    62.068728    86.663799   0.52699951  0.025798284 -0.039592548 0.0093798386 0.0068999667 0.00064936414   0.53727147    14681.926   -962489.82   -956302.98   -947807.89    102770.46   -334472.66   -738355.96   -970058.16    2891.8959    4068.8411    607.60317    7568.3402    -1688.314     345015.5   0.56526971   0.67992239    3.8475668 
      0.0295 -0.0029922512 -0.014859556     2950     298.8926    64.171031    62.042688    86.648036   0.54327256  0.014757285  0.023108936 -0.005422935  0.013658955  0.014257757   0.52558725    14667.579   -962458.51   -957409.41   -947790.93    102794.01   -334547.72   -738361.33   -970115.04    2964.7301    4116.6952    575.10217    7656.5275    -1911.798    344975.57    0.5810077   0.69201175    3.8759091 
        0.03 -0.0034059239 -0.015081045     3000    299.41646    64.202197    62.016946    86.628555   0.55883983 -0.055821505 0.0085761836 0.0012497015  0.017179356 -0.029252449   0.58807316    14693.287   -962466.67   -956239.52   -947773.39     102784.1    -334498.8   -738355.27   -970069.96    2929.0119    4104.8368    569.44285    7603.2915   -1683.0151    344922.35   0.59695666   0.70608813    3.9021828 
      0.0305 -0.0036513708 -0.015410913     3050    302.47204    64.233363    62.001672    86.599541   0.53440303  0.018869799  0.013997619  -0.01241278 -0.0082222004  0.030611677   0.52133127    14843.234    -962607.4   -957150.75   -947764.16    102837.51   -334577.83   -738358.11   -970098.42    2920.3489    4038.1466    532.52942    7491.0249   -1866.1747    344889.25   0.61468216   0.72339381    3.9367271 
       0.031 -0.0037290347 -0.015798254     3100    300.90518    64.264529    61.996839    86.565473    0.5667133 -0.016161183 0.0014886871 0.0035853549 -0.013302032 0.0073425629   0.57488926    14766.343   -962527.11   -956895.47   -947760.76    102822.72   -334522.36   -738364.63   -970064.27    2904.5333    4075.6901    556.93888    7537.1623   -1816.0731    344893.96   0.63419311   0.74276463    3.9756397 
      0.0315 -0.0036669616 -0.016127179     3150    301.39642    64.295695    62.000702    86.536542   0.59186431 -0.041240014 -0.022806966 0.0090318111  0.019132407  -0.01908505   0.62604025    14790.449   -962551.64   -956496.93   -947761.19    102791.65   -334492.73   -738339.91      -970041    2894.7844    4066.8112    527.76979    7489.3654    -1736.384    344967.39   0.65332826   0.76182655    4.0061444 
       0.032 -0.0034303425 -0.016291752     3200    301.26238    64.326861    62.015427    86.522067   0.55308742  0.024838308 -0.015118088 0.0031099695  -0.03351608 -0.00074268645   0.55240495    14783.872   -962538.03   -957074.19   -947754.16     102693.7   -334415.92   -738347.43   -970069.66    2910.4008    4086.0708    535.15046     7531.622   -1851.4932    345158.83   0.66925347   0.77748655    4.0270602 
      0.0325 -0.0031435996 -0.016267748     3250    302.96807    64.358028     62.03327    86.524178   0.61034614  0.024409757 0.0026074037 0.0091982569 -0.010822432 0.0085266922   0.59782513    14867.575   -962631.55   -958327.04   -947763.97    102405.59   -334213.95   -738332.35   -970140.71    2891.2162    4065.1518    552.78958    7509.1576   -2096.7622    345433.84   0.68178605   0.78772354     4.038585 
       0.033 -0.0030769419 -0.016245364     3300    300.33004    64.389194    62.037418    86.526147   0.62421461 -0.018337277  0.019260533 0.0064100838   0.02939609 -0.016771293   0.62744519    14738.119   -962530.21   -958158.49   -947792.09    102194.29   -333979.41   -738345.74   -970130.86     2968.722    4081.4719      550.458    7600.6519   -2056.5437     345632.1   0.69439444   0.79774654    4.0444809 
      0.0335 -0.0031933303 -0.016397436     3350    297.39362     64.42036    62.030176    86.512771   0.61767932  0.016289244 0.0048370727 -0.00064479435 -0.0057376605  -0.02743317   0.60913557     14594.02   -962416.15   -958417.42   -947822.13    102149.64   -333761.78   -738330.71   -969942.85    2905.6951    4079.0955    541.90999    7526.7006   -2101.5071    345705.57   0.70774627   0.81374422    4.0688808 
       0.034 -0.0034809489 -0.016673649     3400    300.38053    64.451526    62.012277    86.488477   0.64703207  0.036775529  0.029266812  0.013233999  0.011924951  0.005483471   0.61489341    14740.596   -962537.66   -959623.17   -947797.06    102074.91   -333766.76   -738346.29   -970038.14    2902.2884     4017.612    580.58409    7500.4845   -2345.8324    345675.93   0.72063167   0.83499021    4.0939435 
      0.0345 -0.0038928736 -0.017153292     3450    297.35833    64.482692    61.986644     86.44629   0.61482323 -0.025412581  -0.01404154 -0.018509593  0.022148837 -0.0012181484   0.63659644    14592.288   -962361.09   -957307.13    -947768.8    102389.13   -333986.73   -738324.18   -969921.79    2942.9225    4058.6195    559.15205     7560.694   -1892.8172     345531.5   0.73877465   0.86148118    4.1468489 
       0.035 -0.0041490652 -0.017596104     3500    301.79253    64.513858    61.970701    86.407343   0.61696553 -0.0089809868 -0.031951901 -0.0034210326 -0.020428868 -0.0042399549   0.63879287    14809.887   -962529.57   -957266.87   -947719.69    102457.46   -334144.22   -738349.98   -970036.73    2888.5957    4065.1936    553.37123    7507.1606   -1895.0001    345453.88   0.75931845   0.88644786    4.1965873 
      0.0355 -0.0041882777 -0.017889739     3550    301.01589    64.545024    61.968261    86.381516   0.64125902 -0.015977752 -0.0070961207  0.014112869 -0.0038669223 0.0065108888   0.65343039    14771.775   -962464.47   -957939.99   -947692.69    102368.69   -334013.07   -738329.22    -969973.6    2834.5771    4102.8264    571.73204    7509.1355    -2033.671    345503.86   0.78001975   0.90753019    4.2405173 
       0.036 -0.0040217708 -0.018152342     3600    300.92904     64.57619    61.978623    86.358419   0.64517092 0.0015615362  0.011254882 -0.020959528  0.046190025 -0.028487845   0.64671586    14767.514   -962444.24   -958587.98   -947676.73    102270.46   -333882.21   -738328.29   -969940.04    2892.7677    4068.7307    534.29441    7495.7928     -2164.61    345636.04   0.80186081   0.92696419    4.2573899 
      0.0365 -0.0037575999 -0.018371493     3650    300.01937    64.607357    61.995062    86.339143   0.64849227 -0.019587833 -0.020155325 -0.014220756 -0.029865055 -0.014058658   0.67125693    14722.873   -962375.17   -957752.34    -947652.3    102012.74   -333584.46   -738318.39   -969890.11    2845.1353    4109.7203    560.08237     7514.938   -2002.6289    345817.37   0.82225929   0.94481203    4.2566877 
       0.037 -0.003570812 -0.018572472     3700    300.88847    64.638523    62.006685    86.321466   0.70720817  0.047882591  0.029939946 0.0071290125 -0.015826089 -0.0022143322   0.66916424    14765.523   -962388.75    -960654.1   -947623.23    101800.45   -333370.26   -738326.88    -969896.7    2876.2538     4067.708    563.98111    7507.9429   -2582.5502    345978.21   0.84308958   0.96152929    4.2717126 
      0.0375 -0.0035710895  -0.01883242     3750    299.28331    64.669689    62.006668    86.298602    0.6658199 0.0085751958 0.0016469526 0.00073110917  0.011734235 -0.010563254   0.66130295    14686.753    -962286.8   -958824.23   -947600.05    101885.41    -333450.7   -738332.75   -969898.04    2928.2694    4127.8739    555.08783    7611.2311   -2224.0054    346053.25   0.86786213   0.97777548    4.3037994 
       0.038 -0.0037976076 -0.019098861     3800    298.30538    64.700855    61.992572    86.275168   0.66332528  0.020820024  0.030174039 -0.013589267  0.006554096 -0.017520898    0.6391356    14638.763   -962234.65   -959455.37   -947595.89    101998.88   -333509.77   -738313.81    -969824.7    2938.8546    4074.7919    576.40631    7590.0528   -2349.9279    346047.32   0.89263829    0.9945529    4.3553357 
      0.0385 -0.0041349896 -0.019376718     3850     300.8756    64.732021    61.971577    86.250729   0.69743561 -0.025922002 -0.041220002 0.0053898076 -0.028269895 -0.026145382   0.73422179    14764.891   -962331.44   -958029.53   -947566.55    102008.22   -333499.71   -738301.86   -969793.34    2846.0591     4069.751    546.09155    7461.9016   -2073.5047    345998.72   0.91422266    1.0148953    4.3555318 
       0.039 -0.0044593267 -0.019682576     3900    300.22946    64.763187    61.951394    86.223827   0.73817912 -0.007121604 0.0077126358 -0.011218992 -0.012175951  0.013921006   0.73894586    14733.183   -962262.48   -959791.09    -947529.3    102153.47   -333703.94   -738321.37   -969871.84    2992.8217     4046.374    570.16389    7609.3596   -2430.3648    345944.63   0.93671772    1.0366272    4.3612348 
      0.0395 -0.0044910416 -0.019940811     3950    301.27716    64.794353     61.94942    86.201114   0.65491834 -0.031072764 -0.0073094464  0.016893665 0.0049399968 -0.013472177   0.67551533    14784.597   -962315.83   -957766.14   -947531.23    102073.38   -333626.15   -738313.74    -969866.5    2873.5507    4127.7792    549.34503    7550.6749   -2028.2462    346008.91    0.9618995    1.0552599    4.3949668 
        0.04 -0.0041874934 -0.020133745     4000    301.30745    64.825519     61.96831    86.184144   0.72636936 -0.0021108551  0.026908584 0.0077614957 -0.0091643314 0.0025839128   0.71472944    14786.083   -962316.54   -960007.67   -947530.45    101827.48   -333340.21    -738315.5   -969828.23    2894.6651    4067.9486    549.07635      7511.69   -2471.1476    346212.73   0.98555162    1.0723309     4.439273 
      0.0405 -0.0039153892  -0.02033955     4050     299.4979    64.856685    61.985243    86.166043   0.70435043  0.016758212 -0.031350147  0.015847121 -0.011350996 -0.0052527918   0.71372201    14697.283   -962240.32   -959006.46   -947543.04     101786.1   -333313.65   -738321.74   -969849.29    2871.2288     4140.005    597.73167    7608.9655    -2269.129    346401.05    1.0053461    1.0925973    4.4650214 
       0.041 -0.0038288154 -0.020525176     4100    301.44804    64.887852     61.99063    86.149716   0.73270279  0.024105501  0.013136473 -0.0085866267  0.013945508 -0.031989883   0.71685266    14792.983   -962342.47    -960350.4   -947549.49    101719.02    -333277.6    -738318.9   -969877.49    2883.2905     4092.393     559.3394    7535.0229   -2532.9213    346531.96    1.0215222    1.1135954    4.4755305 
      0.0415 -0.003879813 -0.020733269     4150    299.25949    64.919018    61.987456    86.131413   0.72393178 0.0083485137  0.013061434 0.0012861449 -0.030357527  0.011761953   0.71546758    14685.583   -962234.82   -959943.79   -947549.24    101712.05   -333163.19   -738313.85      -969765    2886.2647    4070.9672    572.94002     7530.172   -2451.9836       346607    1.0393035    1.1337978    4.4885124 
       0.042 -0.0041211919 -0.020966016     4200    300.22947    64.950184    61.972436    86.110942   0.74065711  0.017076742 -0.028218407 -0.0085900812 -0.017392851 0.0071293197   0.74811514    14733.184   -962258.11    -959656.3   -947524.93    101683.14    -333153.9    -738310.9   -969781.66    2849.5401    4121.2419    552.76669    7523.5487   -2399.9192    346606.97    1.0594289    1.1533132    4.5152224 
      0.0425 -0.0045955435 -0.021211094     4250    299.54288     64.98135    61.942917    86.089386   0.70350601 0.0038555385 0.0094829735 0.0023280064 0.0040340913 0.0063933549   0.69698847     14699.49   -962193.44   -959411.67   -947493.95    101700.78   -333094.35   -738307.89   -969701.46    2875.3009    4074.1711    558.55001     7508.022   -2358.2351    346521.35    1.0800771    1.1752443    4.5536085 
       0.043 -0.0051408948 -0.021420359     4300    299.35767    65.012516    61.908981     86.07098   0.76104378 -0.023336606 -0.002226116 -0.0072859402 0.0062241834  0.009003884   0.77437606    14690.402      -962141    -959674.7    -947450.6    101755.44    -333120.7   -738310.17   -969675.44    2875.8456     4083.441    575.15029    7534.4369   -2419.5446    346423.53    1.1005028    1.1977907    4.5755074 
      0.0435 -0.0055152599  -0.02154333     4350    299.36861    65.043682    61.885684    86.060164   0.78517313 -0.012828369  0.005939238  0.002578542 -0.046637703 -0.0013077263   0.79292645    14690.938   -962092.34   -960336.62    -947401.4    101628.68   -333026.77   -738306.78   -969704.87    2892.1944    4135.5515     584.7792    7612.5251   -2560.3553    346415.64    1.1205464    1.2157676     4.589664 
       0.044 -0.0057064398 -0.021598146     4400    299.24168    65.074848    61.873787    86.055343    0.7449494 -0.008824857 -0.037812811   0.01412253  0.053030544 -0.018664008   0.77520733     14684.71   -962061.06   -958985.09   -947376.35    101702.45   -333099.16   -738318.18   -969714.89    2887.4774    4193.5993    572.74986    7653.8266    -2297.267    346495.59    1.1394876    1.2306442    4.5980024 
      0.0445 -0.0056386284 -0.021555416     4450    301.76111    65.106014    61.878007    86.059101   0.79350774 -0.038714755  0.039731774  0.017912992  0.017026762  0.020643951   0.79785591    14808.346   -962184.96    -960592.6   -947376.61    101581.61   -332967.15   -738314.98   -969700.51    2879.9046    4090.4189    545.22491    7515.5484   -2613.7832    346700.31    1.1531003    1.2439053    4.6264624 
       0.045 -0.0052443787 -0.021566056     4500    298.18421     65.13718    61.902541    86.058165   0.80666165 -0.012041365 -0.002617937 0.0062037874 -0.0071515251  0.017699561    0.8147743    14632.816   -962011.32   -960563.93    -947378.5    101314.95      -332750   -738299.11   -969734.16    2935.0105     4160.956    626.87235    7722.8389   -2605.4852    347000.03    1.1659783    1.2590564    4.6469179 
      0.0455 -0.004657712 -0.021792852     4550    300.05094    65.168347    61.939049    86.038218    0.8206375 -0.0062517833  0.019716009  0.013227556 0.0077976982 -0.013906185   0.81500625    14724.423   -962089.43   -961262.93   -947365.01    101069.96   -332415.25   -738294.11    -969639.4    2873.7982    4092.7093    583.46285    7549.9703   -2743.9813    347290.29    1.1858869    1.2782573    4.6822494 
       0.046 -0.004121147 -0.022325232     4600    301.26796    65.199513    61.972439    85.991392   0.80746249  0.018242529  0.075888092 -0.0091451649 0.0051414137 -0.030135015   0.76403579    14784.146    -962141.6   -962387.03   -947357.46    100930.51   -332274.23   -738299.44   -969643.16    2845.3952     4084.195    571.96653    7501.5567   -2966.0107    347454.48     1.216133    1.3055472    4.7129135 
      0.0465 -0.0038362106 -0.023180704     4650    298.22568    65.230679     61.99017    85.916149   0.82709526  0.032849845 -0.010547342 -0.007235673 0.0077460715  0.016339444   0.81750542    14634.851   -961973.67   -961496.71   -947338.82    101064.13   -332325.53   -738274.83   -969536.23    2863.8241    4140.0827    558.65007    7562.5569   -2794.3014    347415.77    1.2548645    1.3448648     4.743526 
       0.047 -0.0040001989 -0.024053157     4700    302.21623    65.261845    61.979965    85.839412   0.79258537  0.026656283 -0.0081154122 0.0013909247 0.0075246085 -0.0025883876    0.7840184     14830.68   -962132.59   -960814.04   -947301.91    101207.07   -332527.11   -738302.51   -969622.55     2864.773    4072.6974    552.49353    7489.9639   -2668.3979    347214.15    1.2927769    1.3876169    4.7863485 
      0.0475 -0.0045231386 -0.024666634     4750    301.21755    65.293011    61.947423    85.785454   0.79304432  0.018472378 -0.046489102 -0.00070376489   0.01496329 0.00090621958   0.80942861    14781.672   -962065.32   -960019.23   -947283.65    101474.01    -332708.5   -738298.32    -969532.8    2847.4427    4067.2192    552.81986    7467.4818   -2516.7451    346979.32    1.3235856    1.4235699    4.8284603 
       0.048 -0.0050667428 -0.024886811     4800    300.26204    65.324177    61.913595    85.766088   0.82275358 -0.037081897 -0.033291285  0.019609833 -0.0051864596 -0.020359382   0.85938929    14734.782   -961991.42   -959777.98   -947256.64    101637.33   -332899.68   -738289.63   -969551.98    2884.6445    4132.8772    543.03467    7560.5563   -2475.1391    346877.06    1.3427815    1.4475711    4.8700145 
      0.0485 -0.005314847 -0.024733919     4850    301.06259    65.355343    61.898156    85.779536   0.78929962 -0.024789309 -0.0077640801 -0.0093922008  0.022085703 0.0078270696   0.80689674    14774.067   -962014.08   -959838.86   -947240.01    101678.41   -332921.54   -738306.79   -969549.92    2897.8528    4076.5685    561.41529    7535.8366   -2489.5015    347010.41    1.3502901    1.4584643    4.8827831 
       0.049 -0.0051689725 -0.024286591     4900    301.10756    65.386509    61.907233    85.818881   0.81603324 -0.048935388 -0.017682702 -0.025249139  0.021866746 0.0067257373   0.85182016    14776.274   -962013.91   -959727.93   -947237.63    101362.98   -332630.35   -738287.71   -969555.09    2897.2855    4099.2068    544.68647    7541.1787   -2465.3842    347386.07    1.3494764    1.4574693    4.8913579 
      0.0495 -0.0049096309 -0.023784846     4950    299.01444    65.417676    61.923372    85.863012   0.82022848  0.048849919  0.045069872 -0.0028608558 -0.017123173 -0.00032526605   0.77386013    14673.558   -961909.33   -962490.71   -947235.77    100779.79   -332007.96   -738269.58   -969497.75    2921.0605    4115.4973    551.86249    7588.4203    -3007.314    347821.02    1.3490901    1.4541292    4.8742427 
        0.05 -0.0049309266 -0.023644416     5000    300.18222    65.448842    61.922047    85.875363   0.86716082  0.027707507  0.019432251 -0.0019183894  0.010781019  0.017491761   0.84437826    14730.865   -961955.11   -962490.86   -947224.24    100563.59   -331770.97   -738275.28   -969482.67    2937.8819    4025.9112    563.77004    7527.5631    -3007.815    348029.34     1.361666    1.4642338    4.8732619 
      0.0505 -0.0052706093 -0.023967749     5050    299.83755    65.480008    61.900909    85.846925   0.87376017  0.028164165  0.024486997 -0.0037491681 -0.0048037935  0.013344305   0.84782141    14713.951   -961928.59   -962680.44   -947214.64    100609.75   -331792.42   -738262.53    -969445.2    2857.6349    4100.3512    558.62613    7516.6122   -3047.6563    347960.93    1.3892007    1.4908736    4.8856503 
       0.051 -0.0057903687 -0.024575966     5100    302.25491    65.511174    61.868565    85.793429   0.87192044 -0.010215764  0.025172473 0.0065685958 -0.018224963  0.015247931   0.86603854    14832.578   -962018.46   -961981.76   -947185.88    100851.11   -332038.04   -738270.75   -969457.68    2882.1787    4019.2887    537.75701    7439.2245    -2917.599    347727.83    1.4254439    1.5262793    4.9236483 
      0.0515 -0.0063025314 -0.025263088     5150    299.04511     65.54234    61.836693    85.732993    0.8654269 -0.030061712 -0.037118496 -0.020525363 0.0095503471 -0.012897354   0.90016968    14675.063   -961843.78   -960476.06   -947168.72    101062.86   -332195.84   -738285.96   -969418.94    2865.8673      4163.12     546.1756    7575.1629   -2626.0274     347469.1    1.4623835    1.5647118     4.983549 
       0.052 -0.0066489259 -0.025849686     5200     303.5926    65.573506    61.815138    85.681399   0.87253763  0.011715361 -0.031482181 -0.0091871658 -0.0018335628 -0.0039615663   0.88338938    14898.222   -962055.59   -961366.91   -947157.36    101117.61   -332337.48   -738274.39   -969494.26    2865.2155    4023.8297    549.62483      7438.67   -2805.3978    347304.01    1.4948266     1.603133    5.0204569 
      0.0525 -0.0067449272 -0.026249924     5250    301.72917    65.604672    61.809164    85.646196   0.86977479 -0.050446793   0.00734281 0.0065435979 -0.020116778 0.0086431816   0.89360774    14806.779   -961966.15   -960933.57   -947159.37    101260.43   -332439.61   -738274.86   -969454.04    2865.1364    4058.2577    564.49988     7487.894   -2719.5355    347292.75    1.5225953    1.6362472    5.0510125 
       0.053 -0.006476433 -0.026395584     5300    300.13779    65.635838    61.825872    85.633384   0.87644044 -0.038457749 -0.016396938 0.0076320338  0.011823298 -0.020659527   0.90510581    14728.685   -961896.14   -960865.09   -947167.46    101089.44   -332228.52      -738290   -969429.08    2898.3426    4057.1797    577.41232    7532.9346    -2702.807    347499.67    1.5444464    1.6582799    5.0754468 
      0.0535 -0.0059345867 -0.026359986     5350     300.5271    65.667004     61.85959    85.636515   0.88782148 0.00058877256 -0.016699532 -0.0036743255 0.00082640866 0.0063692464   0.89609362    14747.789   -961900.01    -961700.9   -947152.22    100810.08    -331879.2    -738257.1   -969326.22    2903.9922    3969.3309    552.88889     7426.212   -2867.7053       347867    1.5637087     1.671498    5.0877289 
       0.054 -0.0055038676  -0.02624841     5400    300.43736    65.698171    61.886393    85.646329    0.9135992  0.046818265  0.026557382 -0.0047033209 -0.00068448736  -0.01445273   0.87748268    14743.386   -961867.91   -963613.79   -947124.53    100418.74   -331567.99   -738260.65   -969409.91    2897.8795    4105.1873    538.92865    7541.9955   -3246.8948     348222.8     1.584792    1.6824537    5.1051228 
      0.0545 -0.0054157739 -0.026311975     5450    298.95483    65.729337    61.891875    85.640738   0.92888038 -0.0087223324  0.028006022  0.010236735  0.022264035 -0.0041479387   0.92079545    14670.633   -961770.02   -962948.13   -947099.39    100339.31   -331318.39   -738256.66   -969235.74    2892.5518    4034.7325    538.43912    7465.7235   -3119.2173    348396.11     1.613281    1.7022302    5.1218719 
       0.055 -0.0056123306 -0.026611322     5500    298.64282    65.760503    61.879644    85.614409    0.9311764  0.034654182 -0.0039258405  0.022860593 -0.0037287588 -0.033711559   0.91915575    14655.322   -961710.67   -963133.27   -947055.35    100383.44   -331437.24   -738242.51   -969296.31    2909.2433    4112.8528    563.54008    7585.6361   -3164.4206    348385.28    1.6454966    1.7333393    5.1599093 
      0.0555 -0.0060710552 -0.027005808     5550    302.22574    65.791669    61.851098    85.579712   0.90859951 0.0098264852 -0.021186646 -0.012177022 -0.012635482 0.0055530747    0.9152294    14831.147   -961858.89   -962018.91   -947027.74    100665.88   -331721.29   -738270.23   -969325.64    2851.0573    4046.6454    569.05258    7466.7552    -2951.688    348248.41    1.6756982    1.7712333    5.1934802 
       0.056 -0.0065910398 -0.027256616     5600    300.95843    65.822835     61.81874    85.557652    0.9057088 -0.027127472  0.032147453 0.0078538848  0.011772968 -0.0032563066   0.90500602    14768.956   -961778.29   -962221.21   -947009.33     100794.8   -331855.07   -738258.78   -969319.05    2908.3064    4085.0815    547.37365    7540.7616   -2996.0648    348141.33    1.7015793     1.804004     5.240016 
      0.0565 -0.0069724526  -0.02726978     5650    299.84152    65.854001    61.795005    85.556494   0.93431551 -0.013294147 -0.056236872  -0.02251258 -0.011738252 -0.034265191   0.97260331    14714.146   -961727.23   -961458.65   -947013.09    100645.78    -331643.8   -738255.06   -969253.08    2868.4389    4089.0618    568.34586    7525.8466   -2844.9198    348167.73    1.7255704    1.8259885    5.2504575 
       0.057 -0.0071592511 -0.027159067     5700    301.53506    65.885167    61.783381    85.566232   0.94953985 -0.0029596679  0.063432846  0.010380804  -0.01335087 -0.013369499   0.92185613    14797.253   -961803.81   -963884.78   -947006.56    100405.14      -331388   -738256.61   -969239.47    2864.7502    4022.2799    548.63032    7435.6605   -3322.6845    348306.62    1.7516733    1.8421109    5.2608934 
      0.0575 -0.0071044617 -0.027184006     5750    296.97295    65.916333     61.78679    85.564039   0.96533539 -0.039080915  0.023632299  0.010164663  0.009747659  0.027979935   0.97608326    14573.376   -961564.19   -962872.25   -946990.81    100448.22   -331324.49   -738251.65   -969127.92    2931.0622    4073.3195    559.34675    7563.7284   -3124.8845    348481.68    1.7833998     1.863089    5.2776678 
       0.058 -0.0068007139 -0.027393442     5800    300.63413    65.947499    61.805692    85.545618   0.95802012 -0.027757099  0.018584598  0.011095552  0.016927204 -0.0035201911   0.96409947    14753.041   -961709.44    -962829.4    -946956.4    100448.42   -331425.52   -738262.26   -969239.35    2869.8257    4085.8071    574.27814    7529.9109    -3121.466    348678.02    1.8159918    1.8903697    5.3108414 
      0.0585 -0.006323086 -0.027838501     5850    299.02082    65.978666    61.835414    85.506472   0.94176452  0.022185333 -0.0090512852  0.014567421 -0.021277064 -0.0017882545   0.93665923    14673.871   -961582.82   -962891.09   -946908.95    100599.09   -331461.64   -738253.09   -969115.64    2880.5723    4095.1355    557.11415     7532.822   -3141.3721    348850.86    1.8486504    1.9273429    5.3404937 
       0.059 -0.0057657226 -0.028384055     5900    299.40142    66.009832    61.870098    85.458488   0.95718322 -0.012411731  0.016593453 -0.013425359  0.012526463  0.020255982    0.9565954    14692.549   -961556.13   -962961.54   -946863.58    100537.32   -331408.79   -738250.99   -969122.46    2930.4398    4082.9569    552.94003    7566.3367   -3162.6448    349015.44    1.8800709    1.9689726    5.3860468 
      0.0595 -0.0052699459 -0.028871468     5950    301.59135    66.040998     61.90095    85.415618   0.94754149  0.019683133  0.017319544  0.007640447 -0.0085982487 -0.012444418   0.92950595    14800.015   -961631.56   -963325.37   -946831.54    100289.85   -331226.42   -738239.21   -969175.78    2897.3279    4087.6541    559.24076    7544.2228   -3238.8985    349179.09    1.9115544    2.0076552    5.4459725 
        0.06 -0.0050407219 -0.029260817     6000    300.70265    66.072164    61.915214    85.381373   0.96014673  0.012483598 -0.013265952 0.0090815761 -0.0052607711  0.016116995   0.96137406    14756.404   -961568.55   -962888.98   -946812.14    100205.89   -331006.17   -738227.47   -969027.75    2882.7646    4020.8833    555.55602     7459.204   -3156.0634    349284.28    1.9442896    2.0423979    5.4946472 
      0.0605 -0.0051069003 -0.029632829     6050    302.36942     66.10333    61.911096    85.348652    1.0001395  0.040675538 -0.010043094 -0.017453958  0.020015646 -0.00063122436   0.98687542    14838.197    -961641.4   -964077.05   -946803.21    100060.94   -331012.42   -738248.99   -969200.47    2934.8764    4054.5359    569.65736    7559.0696   -3390.9759    349291.89    1.9784315    2.0783887    5.5342338 
       0.061 -0.0054159585  -0.03014281     6100    300.29067    66.134496    61.891864    85.303797   0.97208988  0.015276903 0.0067017405  0.019314996  0.015226174  0.013445703   0.96235467    14736.187   -961558.33   -963474.83   -946822.14    100229.08   -331078.89   -738251.09    -969100.9    2874.6572    4132.4133    535.49899    7542.5695   -3270.2312    349164.41    2.0192288    2.1201501    5.5432331 
      0.0615 -0.0058701454 -0.030653408     6150    298.33553    66.165662      61.8636    85.258887   0.97207427 -7.8791768e-05 -0.0035897195 -0.012176794 -0.037478846 -0.012027428   0.97652438    14640.242   -961448.02   -963022.26   -946807.78    100524.42   -331252.14   -738231.04   -968958.76    2913.3158    4052.0866    545.33685    7510.7393   -3185.8073    348985.61    2.0628905    2.1603935    5.5872316 
       0.062 -0.0061926249 -0.030961929     6200     300.1944    66.196828    61.843533    85.231751   0.97269777 -0.025980225 -0.021411794 -0.0032620109  0.011345133 0.0035476384   0.99663034    14731.463   -961510.97   -962269.68   -946779.51    100585.47   -331428.13   -738251.15   -969093.81    2879.0737    4148.8733    554.89124    7582.8382   -3044.0192    348925.64    2.0989142    2.1929329    5.6087115 
      0.0625 -0.0061863275  -0.03104388     6250    300.78289    66.227995    61.843925    85.224543    1.0189758 -0.014117528  -0.01613611 -0.0045900478 0.0045221739 0.0035614373    1.0341828    14760.342   -961525.94   -963323.89    -946765.6    100533.61    -331299.2   -738244.42   -969010.01    2862.1856    4049.9061     571.9812    7484.0729   -3252.6431    349062.61    2.1250195    2.2176823    5.6282377 
       0.063 -0.0059308379 -0.030904616     6300    300.53063    66.259161    61.859823    85.236792    1.0042268 -0.0011822421 -0.015531123  0.017414574 -0.0036254257  0.025640719    1.0141012    14747.962   -961490.35   -963294.85   -946742.39    100264.02      -331058   -738226.46   -969020.43    2895.9411    4094.5114     539.6292    7530.0818   -3248.6665    349366.86    2.1461223     2.233004    5.6434307 
      0.0635 -0.005687171 -0.030659209     6350    299.40376    66.290327    61.874987    85.258377    1.0429057 -0.0043638161 0.00091957842  0.016978675 0.0097786225 -0.020180539    1.0457732    14692.663   -961425.48   -964172.91   -946732.82    100043.49   -330788.42   -738227.01   -968971.95     2875.404     4095.546    575.51661    7546.4666   -3419.5622     349705.4    2.1674609     2.244085    5.6803537 
       0.064 -0.005630816 -0.030489978     6400    300.38206    66.321493    61.878493    85.273262    1.0249007  0.021950156  0.045082447 -0.0021546986 -0.0067455201 -0.014164662    0.9919661    14740.672   -961449.85   -965042.49   -946709.18     99821.24   -330577.18   -738226.83   -968982.77    2872.7178    4101.1829    559.01614    7532.9169   -3592.1813    349950.73    2.1904566    2.2609612    5.7136936 
      0.0645 -0.0059220882 -0.030490893     6450    299.20346    66.352659    61.860368    85.273181    1.0402788  0.025965414  0.019635219  0.001915436 -0.014056923  0.023777701    1.0186228    14682.834    -961371.9   -964923.94   -946689.06    99841.202   -330515.58   -738218.03   -968892.41     2909.069    4069.9843    541.46058    7520.5138   -3572.2657    350012.29    2.2164655    2.2876949    5.7271688 
       0.065 -0.0063395079 -0.030698436     6500    299.60154    66.383825    61.834392    85.254927    1.0274505 -0.018181559 -0.026179454 0.0064694098 -0.033414284  -0.01917381    1.0518323    14702.369   -961366.39   -963170.06   -946664.02    100154.42   -330721.09   -738217.62   -968784.29    2840.6435    4037.0963    540.15791    7417.8977   -3234.1129    349954.72    2.2479699     2.323694    5.7510924 
      0.0655 -0.0064927453 -0.031046713     6550    298.88162    66.414991    61.824857    85.224294    1.0438663 -0.024345431 0.0045759388 -0.004009623  0.022727418  0.012911292    1.0550434     14667.04   -961273.27   -963800.03   -946606.23    100297.46   -330883.39   -738227.06      -968813    2880.9528    4118.1308     540.6398    7539.7234   -3369.0165    349939.24    2.2828685    2.3638684    5.7893743 
       0.066 -0.0062829228 -0.031401598     6600    300.48382    66.446157    61.837914     85.19308    1.0261524 -0.0084611098  0.014802313 0.0048255054 -0.015119281 0.0079567346    1.0236421    14745.665   -961298.65   -963893.19   -946552.98    100159.63   -330784.23   -738222.07   -968846.67     2910.185    4085.4787    552.36085    7548.0246   -3396.6398    350049.14    2.3172258    2.4019848    5.8476584 
      0.0665 -0.0059479909  -0.03171274     6650    300.26531    66.477323    61.858756    85.165714    1.0450332  0.017737655 -0.012384276 -0.011553261 -0.00093943113 -0.0087700092    1.0429868    14734.942   -961265.45   -964179.77    -946530.5    100112.32   -330628.07   -738208.59   -968724.33    2876.2387    4046.8761    535.76821     7458.883   -3455.5031    350218.83    2.3525789    2.4362078    5.9212513 
       0.067 -0.0056473127 -0.031926589     6700    299.36063     66.50849    61.877467    85.146905    1.0474332  -0.02007186  -0.01139917 -0.012065107  0.014691758 -0.00040983917    1.0637052    14690.547   -961182.96   -963572.65   -946492.41     99943.61   -330452.44   -738220.33   -968729.16    2912.3732    4075.7956    558.03286    7546.2016   -3342.2556     350411.6    2.3868597    2.4651137    5.9740254 
      0.0675 -0.0054352122 -0.032134777     6750    300.90626    66.539656    61.890666    85.128594    1.0613648  0.023740825  0.049326096  0.018130677 0.0076852661  0.020997588    1.0262828    14766.396   -961230.69   -965545.14    -946464.3    99795.286   -330318.59   -738205.13   -968728.43    2880.9567    4056.9178    559.85955     7497.734   -3731.9904    350575.18    2.4186238    2.4962182    6.0054618 
       0.068 -0.0053747371 -0.032461645     6800    299.37875    66.570822    61.894429    85.099844    1.0417415  0.022627162 0.0051304743 -0.027926553 0.0062657183 0.0083771197    1.0292712    14691.436    -961115.9    -964416.6   -946424.46     99746.09   -330177.66   -738201.46   -968633.03    2889.3146    4080.6334    547.18488    7517.1329   -3518.3785    350642.25    2.4511946    2.5342418    6.0202946 
      0.0685 -0.005387382 -0.032932109     6850    299.66936    66.601988    61.893642    85.058464     1.075657 -0.012596764 -0.0056057721 -0.0021814074 0.0026535899 -0.027175954    1.0858122    14705.697   -961087.04    -964170.3   -946381.34     100017.8   -330427.82   -738223.17   -968633.19    2953.2431    4025.1444    567.76967    7546.1571   -3478.7548    350631.37    2.4929002    2.5765944    6.0468369 
       0.069 -0.0052994725 -0.033351207     6900    299.92409    66.633154    61.899113    85.021602    1.0473738 -0.013267804 -0.0024485686 -0.0094899763 -0.0096380881 0.0019205418    1.0555388    14718.198   -961053.43   -963692.35   -946335.24    99956.143   -330345.61   -738212.32   -968601.79    2885.2742    4085.4477    577.62997    7548.3519    -3393.889    350674.41    2.5375891    2.6152584    6.0766217 
      0.0695 -0.0052819031 -0.033633167     6950    301.86942     66.66432    61.900206    84.996803    1.1234456   0.02620438 0.0082691566  0.018485475  0.016946412  0.011142927    1.1073384    14813.661   -961106.22   -965777.73   -946292.56    99631.742   -330129.52   -738191.57   -968689.36    2951.1778    4066.8488    565.11188    7583.1385   -3809.2578    350742.29     2.575647    2.6498936    6.1310291 
        0.07 -0.0053470675  -0.03389731     7000    299.30336    66.695486    61.896151     84.97357    1.0992148 -0.018757229 -0.031065075  0.040794934  0.020376695 -0.010121893    1.1270841    14687.736   -960971.51   -963944.96   -946283.77    99843.097   -330221.97   -738181.56   -968560.43    2880.1042    4150.7803     558.0367    7588.9212   -3452.2331    350787.37    2.6084819    2.6853142    6.1640756 
      0.0705 -0.0053167071  -0.03402022     7050    298.95781    66.726652     61.89804    84.962759    1.0747319 -0.018370654 0.0051304201 -0.0085312033    -0.011408 -0.0016373564    1.0818287    14670.779   -960931.18   -964131.83    -946260.4     99888.66   -330212.22   -738188.12   -968511.68     2904.931    4111.6851    563.88697    7580.5031   -3492.0362    350917.35    2.6336832    2.7113511    6.2015208 
       0.071 -0.005278868 -0.033943262     7100    301.43931    66.757818    61.900395    84.969528    1.1310218 0.00020964527 -0.011583453  -0.01052476 -0.034199538  0.016386397    1.1387966    14792.554   -961013.96      -965083   -946221.41    99640.181   -330055.17   -738175.48   -968590.47    2903.4051    4111.8934    561.20934    7576.5078   -3683.3557    351122.58     2.650857    2.7257367    6.2283937 
      0.0715 -0.0053248315  -0.03391989     7150    301.29161    66.788985    61.897535    84.971584    1.0916627  0.048075654  0.021180001 0.0015331199  0.021788898 0.0076885392    1.0580519    14785.306   -961000.58    -965780.8   -946215.28    99494.203   -329886.57   -738192.03    -968584.4    2922.2275    4086.7561    574.83046     7583.814   -3819.1243    351278.77    2.6709818    2.7437361     6.251185 
       0.072 -0.0054008673 -0.034093674     7200    301.20621    66.820151    61.892803    84.956299    1.1325479 -0.031135174 -0.0069062336  0.015533868  0.026423764 -0.0084077201    1.1530747    14781.115   -960999.56   -964668.58   -946218.45    99284.155   -329625.63   -738182.45   -968523.93    2887.2808    4083.6753    553.41074    7524.3668   -3600.6465    351352.61    2.7008613    2.7735508    6.2623865 
      0.0725 -0.0056065127 -0.034381542     7250      299.675    66.851317    61.880006    84.930979    1.1672835  0.028374495  0.035322031  0.024770094  0.030145374 -0.0067192017      1.13752    14705.974   -960927.61   -966971.51   -946221.64    99308.009   -329649.46   -738181.59   -968523.04    2924.3526    4060.0046    611.07122    7595.4284   -4049.6095    351339.07     2.736374    2.8114477     6.303813 
       0.073 -0.0059714374 -0.034782407     7300    298.99071    66.882483    61.857297    84.895721    1.1331782 -0.0004315176 0.0032852226  0.023217309 -0.0040022962  0.023171841    1.1332023    14672.394    -960887.5   -965358.44   -946215.11    99447.005   -329715.73    -738173.9   -968442.62    2865.6238    4092.8567    596.64127    7555.1217   -3737.2545       351228    2.7771291    2.8556869    6.3575957 
      0.0735 -0.0063573145  -0.03519641     7350    301.91822    66.913649    61.833284    84.859308    1.1502816 -0.015067742 -0.023842661 -0.0078803928  -0.01429154 -0.0095351448    1.1702195    14816.055    -960994.8   -964899.94   -946178.74    99623.695    -329958.9   -738169.48   -968504.68    2895.6721    4059.6805    554.53162    7509.8842   -3656.1269    351104.59    2.8183187     2.901174     6.405524 
       0.074 -0.0064689639 -0.035510963     7400    301.06906    66.944815    61.826336    84.831641     1.140173 -0.054966806 -0.014303586 -0.0069142023 -0.0026778451 -0.019851426    1.1759089    14774.385   -960940.51   -964206.12   -946166.13     99887.07   -330111.58   -738180.18   -968404.69    2809.5834    4068.8186    585.77129    7464.1734   -3522.9958    351114.15    2.8545839     2.941892    6.4577773 
      0.0745 -0.006118576 -0.035609109     7450    300.07496    66.975981    61.848141    84.823009    1.1403079 -0.016651318  0.015311194  0.014134551  -0.01369884  0.018794177    1.1422867    14725.601   -960873.66   -965348.39   -946148.05    99738.142   -329961.49   -738168.56   -968391.91    2828.1067    4123.9838    566.16216    7518.2527   -3746.9126    351365.73    2.8809387    2.9688734    6.4984623 
       0.075 -0.0055697238 -0.035619138     7500     301.0611    67.007147    61.882295    84.822126    1.1203285 0.0090278592 -0.015620338 0.0091849277  0.026312295 -0.015529645    1.1251852    14773.994   -960896.65   -964916.55   -946122.65    99397.258   -329676.72   -738162.52   -968441.98    2913.1819    4076.7287     555.4196    7545.3302   -3663.9065     351719.7    2.9038123     2.988744    6.5418828 
      0.0755 -0.0052191543 -0.035694893     7550    302.58177    67.038314    61.904111    84.815463    1.1374539  0.036385385  0.029560039 -0.015218346 -0.0045564363 -0.00012003003    1.1048397    14848.618   -960971.11   -966444.44   -946122.49    99164.868   -329480.39   -738171.27   -968486.79    2876.9373    4057.0955    581.64881    7515.6816   -3958.8759    351979.69    2.9298657     3.012971    6.5700197 
       0.076 -0.005293218 -0.035921275     7600    297.66415     67.06948    61.899502    84.795552    1.1792156  0.041470887 0.0073783939  0.021165139 -0.0088459922 0.0090918364    1.1559587    14607.295   -960725.29    -966859.7      -946118    99151.463   -329329.76    -738146.5    -968324.8    2944.3479    4088.7105    566.45095    7599.5093   -4040.0193    352034.45    2.9639608    3.0476134    6.5751277 
      0.0765 -0.0057303159 -0.036246217     7650    297.29407    67.100646    61.872302    84.766972    1.1349831 -0.018351339  0.015296908 0.0033413963 0.0055008196 -0.00025603059    1.1369385    14589.135   -960682.63   -965205.52   -946093.49    99469.364   -329565.55    -738148.9   -968245.08    2906.8437    4075.3869    580.22337     7562.454   -3723.7556    351924.61    3.0047226    3.0886787     6.587681 
       0.077 -0.0061692929 -0.036529765     7700    301.42931    67.131812    61.844985    84.742032    1.1882373 0.0081789385 -0.0078944573 -0.0072003988  0.026951345 -0.033443299    1.1905686    14792.063   -960827.15   -966097.21   -946035.08    99559.396   -329742.76   -738171.32   -968354.69     2876.751    4102.0902    548.69714    7527.5383   -3909.9326    351829.08    3.0452056    3.1270333    6.6358586 
      0.0775 -0.0063620008 -0.036769364     7750     300.8925    67.162978    61.832993    84.720958    1.1585262 -0.027358608 0.0018328225 0.0073332791 -0.018892134 0.0055276529    1.1721267     14765.72    -960769.8   -965129.42   -946004.08    99448.225   -329618.12   -738155.15   -968325.05    2938.8021    4043.0324    573.41838    7555.2528   -3727.2816    351836.64    3.0844704     3.164427    6.6667321 
       0.078 -0.0063004206 -0.037061792     7800     298.0471    67.194144    61.836825    84.695238    1.1492419   -0.0236963 -0.017471164 -0.00098809225  0.010100855 0.0012520709    1.1699721    14626.088   -960624.58   -964707.23   -945998.49    99516.765   -329608.88   -738122.75   -968214.86    2884.9842    4118.0255    587.27939    7590.2891   -3645.2815    351914.85    3.1263726    3.2060494    6.6930753 
      0.0785 -0.0060274653   -0.0372547     7850    298.47296     67.22531     61.85381    84.678271    1.2212693   -0.0131664  -0.01797316  0.025645205 0.0030037407 -0.0081285257    1.2377344    14646.986   -960611.67   -966069.66   -945964.68    99482.365   -329527.27   -738149.06   -968193.97    2851.8826    4158.5851     571.8343     7582.302   -3915.2223    352104.24    3.1619412    3.2434907    6.7224124 
       0.079 -0.0055644566  -0.03725199     7900    299.25375    67.256476    61.882623    84.678509    1.2033782 -0.015306335 -0.013419352 -0.012070916  0.033296601   0.02091221    1.2198242    14685.302   -960607.28      -965784   -945921.98    99256.281   -329251.16   -738116.42    -968111.3    2864.8791    4059.6327     579.5049    7504.0167   -3864.3064    352432.56    3.1851828    3.2711037    6.7366241 
      0.0795 -0.0051508538 -0.037146725     7950    300.09811    67.287642    61.908361    84.687768    1.1645346  0.028362866 -0.0019126368 -0.0087034879 -0.0095511321  0.021035624    1.1524016    14726.737   -960606.67   -966038.03   -945879.93    99138.798   -329115.24   -738137.53   -968113.97    2807.7294    4141.9324     557.6399    7507.3017   -3918.0355    352781.09    3.2030185     3.292392    6.7674555 
        0.08 -0.0049608029 -0.037075223     8000    298.95678    67.318809    61.920188    84.694057    1.2186497  0.017050892  0.014951943 0.0075597758 0.0077952678 -0.023148507    1.2034648    14670.729   -960491.88   -967004.58   -945821.15    98904.758   -328800.87   -738112.99    -968009.1    2850.1048    4101.6902    565.42958    7517.2245   -4114.3269    353038.13    3.2242779    3.3148207    6.7880061 
      0.0805 -0.0050507665 -0.037278475     8050    301.55557    67.349975    61.914589     84.67618    1.2157347  0.050835604  0.065839294 0.0069260729  0.017191783  0.013627459    1.1581559    14798.259    -960552.1   -968325.71   -945753.84    98756.674   -328738.76   -738116.64   -968098.73    2880.3317    4083.2571    583.04274    7546.6315   -4383.2869     353095.1    3.2608411    3.3508601     6.797277 
       0.081 -0.0054297857 -0.037766985     8100    302.27756    67.381141    61.891003    84.633213    1.2089731 -0.013376577 -0.013086565  -0.01706661 0.0083529068   0.01947078    1.2231128     14833.69   -960556.57   -965746.82   -945722.88    98900.789   -328935.29   -738138.84   -968173.34    2847.3326    4186.9515    582.48265    7616.7668   -3890.1554    352944.74    3.3160276    3.3987957    6.8303642 
      0.0815 -0.0058919405 -0.038340716     8150    300.60749    67.412307    61.862244     84.58275    1.2571946 -0.0029706648 0.00064594674  0.028168522 0.0031370762 -0.0051702842    1.2593499    14751.734   -960475.84   -966960.63   -945724.11    99135.992   -329063.53   -738122.45      -968050    2873.7869    4107.3645    593.00043    7574.1518   -4128.2009    352733.46    3.3792393    3.4486728    6.9190055 
       0.082 -0.006211269 -0.038787981     8200    299.78938    67.443473    61.842373    84.543411    1.2081852 0.0064987089 -0.050114674 -0.0081317486  -0.01293533  0.025303531    1.2320342    14711.587    -960431.7   -965422.06   -945720.12    99432.621   -329269.31   -738128.75   -967965.44      2849.24    4135.4076    549.08699    7533.7346    -3831.135     352619.1    3.4324555    3.4969725    6.9857493 
      0.0825 -0.0061704459 -0.038928999     8250    299.81829    67.474639    61.844913    84.531008    1.1917723 -0.033805686 -0.008239742 -0.0084983888  0.015025884 -0.0033696095    1.2133796    14713.006    -960411.9   -965156.68    -945698.9    99366.468   -329234.31    -738117.5   -967985.34    2896.4032    4118.9714    558.06108    7573.4358   -3782.3073    352744.78    3.4659358    3.5341508    7.0046754 
       0.083 -0.0058360203 -0.038876867     8300    301.27254    67.505805    61.865724    84.535593    1.2598466  -0.03214335  0.020072843  0.053102609 -0.0053954411 -0.020741926    1.2705665     14784.37   -960478.22   -966829.01   -945693.85    99124.949      -329026   -738127.85    -968028.9    2819.0351    4156.0456    575.59248    7550.6732   -4104.8641    353045.62    3.4918831    3.5578768    7.0611332 
      0.0835 -0.0054495278  -0.03882527     8350    299.75247    67.536971    61.889775    84.540131    1.2089108  0.020463491 -0.00057734176 0.0010315069  0.038830794 0.0019710536    1.2009971    14709.775   -960403.85   -966526.59   -945694.08     99077.93   -328956.99   -738104.83   -967983.89    2927.1809    4075.8917    576.96046    7580.0331   -4042.4278    353364.89    3.5202113    3.5816554    7.1020016 
       0.084 -0.0051255233 -0.038804749     8400    299.04433    67.568137    61.909937    84.541936    1.2215829  0.011299386 0.0082833152 -0.0085340811  0.034302486  0.023120946    1.2140007    14675.025   -960353.65   -966737.84   -945678.62    98854.479   -328653.95   -738110.69   -967910.17    2883.4571    4121.4985    551.56301    7556.5186   -4083.1173    353650.68    3.5496265    3.6110903    7.1048606 
      0.0845 -0.0049766369 -0.038956987     8450    298.73112    67.599304    61.919202    84.528546    1.2799648 -0.0046263259   0.03800358  0.014946844 -0.022059607 -0.022960223    1.2652831    14659.655    -960300.6   -967934.89   -945640.94    98804.505      -328507    -738094.2   -967796.71    2852.4301    4076.3662    567.30888    7496.1052   -4320.5595    353810.71    3.5881482    3.6502606    7.1196517 
       0.085 -0.0049616782 -0.039395673     8500    299.64821     67.63047    61.920133    84.489961     1.241723  0.004366361  0.011413673  0.025359086 0.0019851344  0.023452255    1.2353025     14704.66   -960271.26   -966913.09    -945566.6    98854.765   -328512.07   -738130.36   -967787.66    2904.9085    4028.6197    582.87672    7516.4049   -4136.8634    353817.57    3.6411231    3.7028973    7.1843064 
      0.0855 -0.0050328228 -0.040027477     8550    300.38075    67.661636    61.915706    84.434391    1.2361975  -0.01929859 -0.006227941  0.013945743 0.0016253168 -0.013137154    1.2494559    14740.607   -960242.54   -966047.91   -945501.93     99072.19   -328788.34   -738129.53   -967845.68    2893.3253    4119.5718    590.24529    7603.1425   -3982.7977    353722.51     3.701268    3.7679214    7.2633715 
       0.086 -0.0050414189 -0.040615173     8600    300.64601    67.692802    61.915171      84.3827    1.2589236 0.0031113887 -0.011919684 0.0054656672 -0.0061019717 -0.019454673    1.2639238    14753.624   -960214.42   -966672.77    -945460.8    99316.152   -328979.76   -738107.71   -967771.32    2884.0255     4108.517    564.35662    7556.8991   -4112.5598    353665.74    3.7578448    3.8324721    7.3145155 
[...]
      0.9785 -0.034128119  -0.11805672    97850     302.4145    123.32432    60.105138    77.571328   0.21090681  0.002376055 -0.029984185 0.0024146642 0.0073439288  0.024018519   0.23063028     14840.41   -956569.85   -946786.04   -941729.44    111110.97   -339056.98   -735544.49    -963490.5    2613.5455    3661.3523    645.74997    6920.6478   -603.00578    574991.66    328.55273    361.30224    365.94482 
       0.979 -0.034408485  -0.11740014    97900    302.22673    123.35548    60.087691    77.629078   0.17583722 -0.045930926 -0.023788373 -0.0025094076 0.0023166607  0.023711288   0.21559814    14831.195   -956584.71   -944683.03   -941753.52    110999.16   -338873.87   -735566.62   -963441.33     2614.881    3626.9638     614.7697    6856.6145    -349.1008    575398.07    328.85158    361.72717    366.28665 
      0.9795 -0.034274457  -0.11637485    97950    300.25049    123.38665    60.096031    77.719257   0.21927347  0.007241741 -0.0029348721 -0.013032826  0.012334581 0.0092370121   0.22009257    14734.215   -956536.36   -947983.93   -941802.14    110228.67   -338185.86   -735561.12   -963518.31    2633.2903    3692.0836    656.57786    6981.9518   -735.52212    576292.02    329.09145    362.09198    366.48248 
        0.98 -0.034263213   -0.1154738    98000    299.07456    123.41782    60.096731    77.798509   0.22434971  0.046321362 0.0044915943 -0.011177282 -0.016346817  0.035737052   0.21423951    14676.508   -956515.66   -949456.91   -941839.15    109757.12   -337655.55   -735493.51   -963391.93    2562.8509    3671.8122    641.61536    6876.2784   -905.21481    577032.11    329.35714     362.4418     366.9002 
      0.9805 -0.034691322  -0.11498468    98050    296.77097    123.44898     60.07009     77.84153   0.21673431  0.016561835  0.035221334  0.011174567 -0.0097924372   0.01435469   0.19483977    14563.464   -956385.73   -949258.75   -941822.26    109710.87   -337512.46   -735514.82   -963316.41    2596.2517    3700.3439    634.08615    6930.6818   -883.35382    577240.98     329.6892     362.8426    367.51461 
       0.981 -0.035414379  -0.11493463    98100    299.66776    123.48015    60.025095    77.845932   0.20808944 -0.0082492759  0.012055066  -0.01269183 -0.011459459 -0.0032609009   0.20912005    14705.619   -956491.71   -947651.86   -941786.09    110250.89   -338099.72   -735545.12   -963393.95     2574.822    3684.3293    643.09149    6902.2428    -697.0811    576986.86    330.10816    363.31627    368.01367 
      0.9815  -0.03603242  -0.11519304    98150    298.65209    123.51131    59.986635    77.823203   0.17906569 -0.021150672 0.0096120342 -0.0049395819 0.0085650552  0.021475556   0.19118216    14655.776   -956418.26   -946396.88   -941762.48    110955.65   -338696.35   -735559.81   -963300.51    2574.4412    3670.5555      637.257    6882.2538   -551.12116     576594.3    330.60901    363.81394    368.42216 
       0.982 -0.036162122  -0.11552919    98200    299.39009    123.54248    59.978564    77.793637      0.15437 -0.0032567236  0.006469622 -0.0098275662 -0.003834096 0.0025168763   0.15414442    14691.992   -956415.73    -946081.9   -941723.73    111051.63    -338835.3   -735560.29   -963343.96    2615.3238    3688.1122    624.79555    6928.2315   -518.40743    576443.11    331.08999    364.32976    368.92235 
      0.9825 -0.035925155  -0.11565502    98250    304.04136    123.57365     59.99331     77.78257   0.21473501 -0.025878078 -0.023957364  0.011433904  -0.01497922 0.0073363186   0.24220445    14920.245   -956625.15   -946267.05   -941704.91    110543.54   -338542.06    -735529.9   -963528.42    2571.3664    3674.4944    657.40783    6903.2687    -542.4774    576648.25    331.46878    364.86428    369.26233 
       0.983 -0.035719049  -0.11552549    98300    299.34984    123.60481    60.006136    77.793963   0.22701075   0.01740688 -0.0086694439 0.0040380126  -0.01059135 0.0075784498   0.22502711    14690.017   -956417.32   -948253.55   -941727.31    110331.56   -338190.06   -735472.28   -963330.78    2627.3286    3651.5886    634.54154    6913.4587   -775.55124    577001.49    331.79379    365.35043    369.77044 
      0.9835 -0.035616473  -0.11537398    98350    300.01965    123.63598    60.012519    77.807289   0.19611244 -0.0043010774  0.007116942 0.0055685245  -0.02899243 0.0041841348   0.20168008    14722.887   -956460.52    -947247.5   -941737.63    110306.73   -338205.38   -735531.22   -963429.87    2580.0387    3726.8285    662.48581     6969.353   -654.42324    577307.25    332.13819    365.80087    370.33094 
       0.984  -0.03549883  -0.11538308    98400    302.14625    123.66714     60.01984    77.806488   0.23492241 0.0015611072  0.031159164 -0.0044788538 -0.0059080845 0.0065395402   0.22072538    14827.246   -956584.71   -949173.27   -941757.46    110245.54   -338160.79   -735558.94   -963474.19    2587.6009    3686.0782     615.8018    6889.4809   -880.47596    577517.28    332.54403    366.24128     371.0408 
      0.9845 -0.035342553  -0.11547312    98450    300.26527    123.69831    60.029565    77.798569   0.19606492 -0.018858248 -0.035677617 -0.027573443 0.0029774381  0.025187177   0.23302445     14734.94   -956529.03   -945716.79   -941794.09       110363   -338311.56   -735548.03   -963496.59    2577.5994    3760.9411    629.01396    6967.5544    -465.5944    577697.61    332.95982    366.68811    371.77662 
       0.985  -0.03522118  -0.11531398    98500    297.52532    123.72948    60.037118    77.812566   0.22670094  0.024255863 0.0011897865 -0.00075244827 -0.0016642481  0.011566433   0.21586344    14600.482   -956422.43   -948814.47   -941821.95     110304.1   -338159.88   -735521.39   -963377.17    2636.8711    3649.1783    668.68793    6954.7373   -829.49779    578019.85      333.326    367.12481    372.21927 
      0.9855 -0.035258831  -0.11494119    98550    299.99912    123.76064    60.034775    77.845355   0.20910896 -0.0074893173  0.011478532 -0.014615439 -0.016048937 0.00090216814    0.2111449     14721.88   -956539.24   -947730.74   -941817.36     110037.8   -337953.36   -735505.43   -963420.99    2548.4158    3699.8843    633.45251    6881.7526   -701.03849     578386.5     333.7143    367.54181    372.54474 
       0.986 -0.035505933  -0.11472706    98600     296.7693    123.79181    60.019398    77.864188   0.22146933 0.0052569744 0.0054880739 0.0047892181 0.0071248789 0.0076927666    0.2170173    14563.382   -956361.04   -948243.04   -941797.66    110219.23   -338043.99   -735515.04   -963339.81    2638.3077    3693.9225    646.53486    6978.7651   -763.92592     578523.9    334.18686    367.95542    372.98862 
      0.9865 -0.035735739  -0.11471534    98650    300.16268    123.82298    60.005097    77.865219   0.20923659 -0.0080077855    0.0175598 0.0084077751 -0.018734564 -0.0018693173   0.20873407    14729.906   -956477.49   -947820.48   -941747.59    110126.29   -337999.16   -735521.13      -963394    2616.7676    3672.0058    627.72896    6916.5024   -719.75855    578539.33    334.64247    368.44104    373.33268 
       0.987 -0.035956789  -0.11492636    98700    300.90583    123.85414    59.991342    77.846659   0.22149407 0.0081286215  0.014685435 0.0032231258 -0.0022118163 -0.0015032132   0.21028892    14766.374   -956490.85   -948504.25   -941724.47    110436.47   -338341.12   -735536.21   -963440.85     2610.733    3718.6058    620.66664    6950.0055   -803.71123    578414.39    335.04536    369.00748    373.79886 
      0.9875 -0.036130382  -0.11519049    98750    301.31264    123.88531    59.980539    77.823428    0.1778929 -0.028694949 -0.030182837 -0.011490192   0.01352651  0.013541135   0.21091039    14786.338   -956520.24   -945035.93    -941733.9    110742.23   -338648.21   -735540.71   -963446.69      2587.04    3694.9108    644.50013    6926.4509   -391.52929    578283.13     335.4193    369.58205    374.49308 
       0.988 -0.036046398  -0.11520517    98800    300.76281    123.91647    59.985765    77.822136    0.1969215 -0.0067294343 -0.0075054106 0.0038793725 0.0029366985 0.0090306717   0.20481215    14759.356   -956512.48   -946823.32   -941753.12    110758.69   -338678.49   -735500.95   -963420.75    2658.2402    3612.6193      637.411    6908.2704   -600.99238    578469.41     335.7768    370.11327     375.0766 
      0.9885 -0.035777654   -0.1149177    98850    299.65779    123.94764    60.002489    77.847421    0.2037544 -0.018718633  0.018546176 0.00013970345  0.012197835   0.01249939   0.20858482    14705.129    -956481.6   -947431.42   -941776.47    110644.08   -338504.42   -735518.15   -963378.49    2581.3201    3661.7335    653.83739     6896.891   -669.73252    578964.26    336.16712    370.57226    375.60348 
       0.989 -0.035313185  -0.11465144    98900    298.69667    123.97881    60.031393    77.870839   0.20910516 0.0024555701 -0.016798632 0.0015624816 0.0074742864 -0.0032645081    0.2173949    14657.964    -956444.4   -947201.99   -941786.43    110347.99    -338276.5   -735493.54   -963422.05    2645.2628     3737.146    595.24847    6977.6572    -640.7175    579563.09    336.56869    371.04709    376.14474 
      0.9895 -0.034930023  -0.11465932    98950    299.14652    124.00997    60.055236    77.870147   0.20651347  0.034261415 0.0058992712  0.015469212 0.0011698365 -0.0027281188     0.190013     14680.04   -956478.45   -948661.82   -941798.41    110144.66   -338080.77   -735479.84   -963415.95    2580.0526    3697.2107    660.24118    6937.5045   -811.49487    579933.88    336.95986    371.64071    376.44523 
        0.99 -0.034986059  -0.11484617    99000     302.0459    124.04114    60.051749    77.853713   0.22166934  0.012872249   0.02371483  0.011627733 -0.0024141948 -0.0095307995   0.20529367    14822.321   -956609.89   -948973.12   -941787.57    110224.81   -338197.49   -735485.46   -963458.15    2543.8717    3665.8032     638.5811     6848.256   -849.59756    579923.53    337.43782    372.25321    376.64067 
      0.9905 -0.035397762  -0.11498785    99050    297.84507     124.0723    60.026129    77.841251   0.17832596 -0.017257306  -0.03153811 0.0033938755  0.025401999  0.011494772   0.20884581    14616.174   -956400.12    -945386.7   -941783.94    110708.58   -338596.56   -735494.49   -963382.47    2618.4751     3695.295    668.58328    6982.3534   -426.12237    579728.96    337.98444    372.78769    377.17652 
       0.991 -0.035805091  -0.11482855    99100    299.87049    124.10347    60.000782    77.855262   0.18804997 -0.002244462 -0.022738452 -0.0032975895 -0.0015490095 0.0060363042   0.20169531    14715.567    -956494.9   -946314.92   -941779.33    110821.36   -338808.38   -735515.35   -963502.37    2625.5798    3706.2561    675.63725    7007.4731   -536.44889    579734.05      338.437    373.27777    377.61051 
      0.9915 -0.036007214   -0.1143783    99150    300.70323    124.13464    59.988204    77.894864   0.21985678 -0.0094471563  0.014400351  0.011470687 -0.022497017    -0.011826   0.22363656    14756.433   -956538.19   -948038.11   -941781.76    110682.96   -338609.97   -735548.78   -963475.79    2585.6425    3709.0807     642.8788     6937.602   -739.56731    580052.97    338.77546    373.73621    377.96231 
       0.992 -0.035816704  -0.11402367    99200    300.16828     124.1658    60.000059    77.926055   0.21481894 -0.021207932 0.0062273393  0.015128064 -0.0085456988 -0.00048685236   0.22559319    14730.181   -956519.44   -947355.39   -941789.26    110157.35   -338065.29   -735517.59   -963425.54    2631.2423    3633.2332    641.61846    6906.0939   -657.41704    580545.64    339.11473    374.20048    378.28394 
      0.9925 -0.035485051  -0.11387724    99250    297.84653    124.19697    60.020697    77.938935   0.22504309  0.010783232 0.0053939823  0.030010727 0.00069236306 -0.0013993313   0.22315975    14616.246   -956403.58   -948511.19   -941787.33    109860.73   -337665.79   -735485.38   -963290.45     2628.076    3639.1082    619.68574    6886.8699    -793.5531    580987.11    339.51635    374.67426    378.74505 
       0.993  -0.03539366  -0.11389922    99300    300.47204    124.22813    60.026385    77.937002   0.24795611  0.022944898  0.014886566  0.004517196  0.013791163 -0.00038718431   0.23052213    14745.087   -956509.84   -949733.45   -941764.76    109770.27   -337669.61   -735451.62   -963350.96     2575.683    3626.6796    638.75349    6841.1161   -940.16803    581173.56    339.95026    375.16913    379.34184 
      0.9935 -0.035744087  -0.11398924    99350    299.45174     124.2593    60.004578    77.929083   0.21676578  0.020039166 -0.0061079478  0.026548789  0.011912968 0.0012364422    0.2169648    14695.018   -956425.54   -948161.73   -941730.52    110026.93   -337962.71   -735490.08   -963425.87    2622.7013    3730.9605    646.67148    7000.3333   -758.93412    581049.13    340.34218      375.719    379.83021 
       0.994 -0.036302142  -0.11409104    99400    303.03829    124.29047    59.969851     77.92013   0.20767699 -0.0046525224 -0.016192652 -0.010146708 -0.014229647  0.014595328   0.22186188    14871.021    -956592.9   -946927.94   -941721.88    110408.39   -338399.13   -735521.55   -963512.29    2612.2001    3663.3108    643.87925    6919.3901   -614.62888    580791.77    340.70737     376.2789    380.40227 
      0.9945  -0.03688959  -0.11413152    99450    300.73699    124.32163    59.933295     77.91657   0.20003272 -0.0052718517  0.023327763  0.016599798 -0.019394596 0.0038424135   0.19772627    14758.089   -956508.54   -947825.02   -941750.45    110801.46   -338667.94   -735521.84   -963388.33    2584.8362    3676.3202       618.63    6879.7864   -717.45582    580556.75    341.11773    376.79913    380.87319 
       0.995 -0.037246837  -0.11409876    99500     303.8122     124.3528    59.911064    77.919451   0.18958431 -0.019164601 -0.0047387315 0.0017710538 -0.0040658347 0.0047558343   0.20223671    14908.999   -956684.43   -946389.88   -941775.43    110386.32   -338395.09   -735521.56   -963530.33    2607.7024    3603.9833    634.21001    6845.8958   -545.04804    580508.36    341.56694    377.26969    381.39933 
      0.9955  -0.03731315  -0.11416814    99550    299.28067    124.38397    59.906937    77.913348   0.20658713 -0.0074842227 0.0026306308  0.011109035 0.00088631259 0.0027661264   0.21014066    14686.623   -956511.51   -947444.03   -941824.89    110319.35   -338259.62   -735512.65   -963452.93    2618.8362    3689.9325    632.64386    6941.4126   -663.65174    580568.38    341.99375    377.75181    381.86576 
       0.996 -0.037230241  -0.11438465    99600    298.77385    124.41513    59.912096    77.894305   0.22142244  0.010693133  0.015055068 0.0038565531 -0.014713749 0.0041470554   0.21036248    14661.752   -956505.51   -948729.15   -941843.76    110435.72   -338324.41   -735520.24   -963408.92    2539.5161    3713.9504    649.94532    6903.4118   -813.12818    580621.92    342.39135    378.25962    382.48564 
      0.9965 -0.037026565  -0.11471622    99650    302.60661     124.4463    59.924771    77.865142    0.1698284 -0.010102653 -6.7406457e-05 -0.00059563338 -0.014830607 -0.0048723402   0.17720712    14849.837    -956683.8   -946281.92   -941833.96    110470.35    -338499.6   -735535.32   -963564.57    2635.2418    3602.0802    643.44908    6880.7711   -525.23511    580672.74    342.79303    378.76595    383.01817 
       0.997 -0.036646889  -0.11518471    99700    300.06052    124.47746    59.948398    77.823936    0.2122569 -0.016515269 0.00069068203 0.0035234728 -0.011453719 -0.013467116   0.22287083    14724.893   -956588.38   -947336.58   -941863.49    110445.83   -338421.58   -735558.83   -963534.58    2587.0778    3698.0077    661.11105    6946.1965   -646.21207    580739.68    343.25916    379.27738    383.56982 
      0.9975 -0.036201867  -0.11569335    99750      298.547    124.50863    59.976091    77.779198   0.20958459  0.023623516 0.0068783041 -0.012348656 -0.007109868  0.025045853   0.20116382    14650.619   -956526.83   -948566.53   -941876.21    110164.82   -338037.91   -735522.76   -963395.85    2595.5639    3625.9269    647.52569    6869.0166   -789.82288    580819.34    343.77095    379.78629    384.12971 
       0.998 -0.036046438  -0.11617351    99800    297.79903     124.5398    59.985763    77.736966   0.22195002  0.018140185 0.0079580166 0.0047862919 -0.0044247711  0.012078519   0.21043404    14613.915   -956468.99   -948766.35   -941855.08    109777.03   -337719.81   -735500.39   -963443.18    2633.4357    3703.8189    636.93588    6974.1905    -816.0152    580742.92    344.22948    380.30336     384.8631 
      0.9985 -0.036306474  -0.11686687    99850    300.20142    124.57096    59.969581    77.675982   0.21023323  0.017555704  0.027531949 -0.0067013551 -0.014104864  0.014729039    0.1915316    14731.807    -956567.7   -948944.09    -941835.9    109951.03    -337914.6   -735516.56   -963480.13    2589.0068    3653.3713    670.05028    6912.4283   -839.94039    580275.97    344.66775    380.86778    385.45463 
       0.999 -0.036790836  -0.11772385    99900    297.80786    124.60213     59.93944    77.600606   0.18940733 -0.0039991415 -0.0041734442 -0.0099191603 -0.0011805232  0.009595597   0.19497534    14614.348    -956433.9   -946858.99   -941819.55    110840.98   -338668.94    -735539.4   -963367.36    2589.4586    3723.3389     620.6678    6933.4653   -596.21596    579566.47    345.15384    381.44319    386.15246 
      0.9995 -0.037058729  -0.11835513    99950    297.13218    124.63329    59.922769    77.545082   0.16261699 -0.035925983 -0.0089131557 0.00041347316  0.015276372  0.018800974   0.19117229     14581.19   -956366.97    -945058.3   -941785.78    111052.77    -338804.8   -735536.71   -963288.73    2596.7007     3682.748     642.3131    6921.7618   -387.45902    579135.53    345.66208    381.97185    386.60485 
           1 -0.036804435  -0.11874379   100000    303.25659    124.66446    59.938594    77.510897   0.18557393 -0.011612476 0.0019128003  0.012009932 0.0022811364 0.0092103755    0.1926168    14881.733   -956619.59   -946624.97   -941737.85    110611.02   -338535.55   -735547.35   -963471.88    2532.4805    3710.1043    609.70565    6852.2904   -578.58132    579177.89    346.17393    382.44702    387.02871 
Loop time of 8966.97 on 64 procs for 100000 steps with 16464 atoms

Performance: 0.964 ns/day, 24.908 hours/ns, 11.152 timesteps/s
754.6% CPU use with 1 MPI tasks x 64 OpenMP threads

MPI task timing breakdown:
Section |  min time  |  avg time  |  max time  |%varavg| %total
---------------------------------------------------------------
Pair    | 3287       | 3287       | 3287       |   0.0 | 36.66
Bond    | 204.77     | 204.77     | 204.77     |   0.0 |  2.28
Kspace  | 1695.7     | 1695.7     | 1695.7     |   0.0 | 18.91
Neigh   | 262.79     | 262.79     | 262.79     |   0.0 |  2.93
Comm    | 15.161     | 15.161     | 15.161     |   0.0 |  0.17
Output  | 6.0025     | 6.0025     | 6.0025     |   0.0 |  0.07
Modify  | 3481.3     | 3481.3     | 3481.3     |   0.0 | 38.82
Other   |            | 14.23      |            |       |  0.16

Nlocal:        16464.0 ave       16464 max       16464 min
Histogram: 1 0 0 0 0 0 0 0 0 0
Nghost:        19264.0 ave       19264 max       19264 min
Histogram: 1 0 0 0 0 0 0 0 0 0
Neighs:    1.32917e+06 ave 1.32917e+06 max 1.32917e+06 min
Histogram: 1 0 0 0 0 0 0 0 0 0
FullNghs:  3.41032e+06 ave 3.41032e+06 max 3.41032e+06 min
Histogram: 1 0 0 0 0 0 0 0 0 0

Total # of neighbors = 3410320
Ave neighs/atom = 207.13800
Ave special neighs/atom = 4.6666667
Neighbor list builds = 4113
Dangerous builds = 0

unfix 3
unfix 4

print "all done!"
all done!
Total wall time: 2:29:39
