LAMMPS (29 Oct 2020)
  using 8 OpenMP thread(s) per MPI task
#Initialization----------
units       real
boundary p p p
atom_style  full
pair_style   hybrid lj/charmm/coul/long 9.9 10. buck/coul/long 9.9 10.
bond_style      harmonic
angle_style     harmonic
special_bonds   amber
dihedral_style  charmm
kspace_style pppm 1.0e-4
kspace_modify diff ad

#Reading data file(with bonded interactions) and potential file(non bonded)------------
read_data    NPT777_aniso.data
Reading data file ...
  orthogonal box = (-0.89082456 0.35542204 1.9517850) to (61.441406 62.584315 89.906793)
  1 by 1 by 1 MPI processor grid
  reading atoms ...
  16464 atoms
  reading velocities ...
  16464 velocities
  scanning bonds ...
  4 = max bonds/atom
  scanning angles ...
  6 = max angles/atom
  scanning dihedrals ...
  9 = max dihedrals/atom
  reading bonds ...
  9604 bonds
  reading angles ...
  16464 angles
  reading dihedrals ...
  12348 dihedrals
Finding 1-2 1-3 1-4 neighbors ...
  special bond factors lj:    0.0      0.0      0.5     
  special bond factors coul:  0.0      0.0      0.8333333333333334
     4 = max # of 1-2 neighbors
     3 = max # of 1-3 neighbors
     6 = max # of 1-4 neighbors
     7 = max # of special neighbors
  special bonds CPU = 0.008 seconds
  read_data CPU = 0.149 seconds
#read_restart restart.txt
include dlpoly2lammps.nonbonding
 pair_coeff           1           3 lj/charmm/coul/long   1.4000000000000000E-002   2.2645400000000002
 pair_coeff           2           3 lj/charmm/coul/long   5.7400000000000000E-002   2.7500000000000000
 pair_coeff           3           3 lj/charmm/coul/long   1.5699999999999999E-002   1.0690999999999999
 pair_coeff           3           4 lj/charmm/coul/long   5.1700000000000003E-002   2.1595000000000000
 pair_coeff           4           4 lj/charmm/coul/long  0.17000000000000001        3.2500000000000000
 pair_coeff           3           5 lj/charmm/coul/long   4.1399999999999999E-002   2.2343999999999999
 pair_coeff           4           5 lj/charmm/coul/long  0.13639999999999999        3.3248000000000002
 pair_coeff           5           5 lj/charmm/coul/long  0.10940000000000000        3.3997000000000002
 pair_coeff           1           6 lj/charmm/coul/long   1.4000000000000000E-002   2.7099899999999999
 pair_coeff           2           6 lj/charmm/coul/long   5.7400000000000000E-002   3.1000000000000001
 pair_coeff           3           6 lj/charmm/coul/long   1.5699999999999999E-002   1.5145000000000000
 pair_coeff           4           6 lj/charmm/coul/long   5.1700000000000003E-002   2.6050000000000000
 pair_coeff           5           6 lj/charmm/coul/long   4.1399999999999999E-002   2.6798000000000002
 pair_coeff           6           6 lj/charmm/coul/long   1.5699999999999999E-002   1.9600000000000000
 pair_coeff           1           1 buck/coul/long   70359906.629702002       0.13125800000000001        0.0000000000000000
 pair_coeff           1           2 buck/coul/long   103496.13301000001       0.32173700000000000        0.0000000000000000
 pair_coeff           2           2 buck/coul/long   22793.338582000000       0.48221700000000001        696.94954199999995
 pair_coeff           1           4 buck/coul/long   32690390.937995002       0.15094700000000000        0.0000000000000000
 pair_coeff           2           4 buck/coul/long   112936.71421300001       0.34242600000000001        0.0000000000000000
 pair_coeff           1           5 buck/coul/long   32690390.937995002       0.15094700000000000        0.0000000000000000
 pair_coeff           2           5 buck/coul/long   112936.71421300001       0.34242600000000001        0.0000000000000000

group lead type 1
1372 atoms in group lead
group iodine type 2
4116 atoms in group iodine
group methylammonium molecule <> 5489 6860
10976 atoms in group methylammonium


timestep 1

############ ---------- Define Settings ------------------------------------------#####################
compute csym all centro/atom fcc
compute eng all pe/atom
compute stress all stress/atom NULL virial
compute eatoms all reduce sum c_eng
compute stress1 all reduce sum c_stress[1]
compute stress2 all reduce sum c_stress[2]
compute stress3 all reduce sum c_stress[3]
compute stress4 all reduce sum c_stress[4]
compute stress5 all reduce sum c_stress[5]
compute stress6 all reduce sum c_stress[6]

reset_timestep 0
timestep 1

##### Store cell length for strain calculations
variable tmpx equal "lx"
variable L0x equal ${tmpx}
variable L0x equal 62.3322301271326
print "Initial Length in x, L0x: ${L0x}"
Initial Length in x, L0x: 62.3322301271326

variable tmpy equal "ly"
variable L0y equal ${tmpy}
variable L0y equal 62.2288929287961
print "Initial Length in y, L0y: ${L0y}"
Initial Length in y, L0y: 62.2288929287961

variable tmpz equal "lz"
variable L0z equal ${tmpz}
variable L0z equal 87.9550080823369
print "Initial Length in z, L0z: ${L0z}"
Initial Length in z, L0z: 87.9550080823369

thermo 50

#######------Deformation------######
fix 3 all npt temp 300 300 100 x 1 1 1000 z 1 1 1000 drag 1
variable srate equal 1.0e10
variable srate1 equal "v_srate / 1.0e15"
fix 4 all deform 1 y erate ${srate1} units box remap x
fix 4 all deform 1 y erate 1e-05 units box remap x

compute msdpb lead msd
compute msdi iodine msd
compute msdma methylammonium msd

compute myRDF all rdf 20 1 1 2 2 1 2 1 4 1 5 2 4 2 5 4 5
fix 2 all ave/time 1 1000 1000 c_myRDF[*] file stress.rdf mode vector

########-----output strain and stress info to file----#######
variable strainx equal "(lx - v_L0x)/v_L0x"
variable strainy equal "(ly - v_L0y)/v_L0y"
variable strainz equal "(lz - v_L0z)/v_L0z"
variable p1 equal "-pxx *1.01325/10000"
variable p2 equal "-pyy *1.01325/10000"
variable p3 equal "-pzz *1.01325/10000"
variable p4 equal "-pxy *1.01325/10000"
variable p5 equal "-pyz *1.01325/10000"
variable p6 equal "-pxz *1.01325/10000"
variable vonmises equal "sqrt(((v_p1-v_p2)^2+(v_p2-v_p3)^2+(v_p1-v_p3)^2+6*(v_p4^2+v_p5^2+v_p6^2))/2)"


dump 6 all custom 5000 deform.dump id element type mass xs ys zs c_csym c_eng q fx fy fz c_stress[1] c_stress[2] c_stress[3] c_stress[4] c_stress[5] c_stress[6]
dump_modify 6 element Pb I H N C H
thermo_style custom v_strainy v_strainx v_strainz step temp lx ly lz v_p1 v_p2 v_p3 v_p4 v_p5 v_p6 v_vonmises ke pe etotal evdwl ecoul elong epair ebond eangle edihed emol press vol c_msdpb[4] c_msdi[4] c_msdma[4]

run	100000
PPPM initialization ...
  using 12-bit tables for long-range coulomb (../kspace.cpp:328)
  G vector (1/distance) = 0.27077963
  grid = 40 40 60
  stencil order = 5
  estimated absolute RMS force accuracy = 0.037815385
  estimated relative force accuracy = 0.00011387991
  using double precision KISS FFT
  3d grid and FFT values/proc = 148003 96000
Neighbor list info ...
  update every 1 steps, delay 10 steps, check yes
  max neighbors/atom: 2000, page size: 100000
  master list distance cutoff = 12
  ghost atom cutoff = 12
  binsize = 6, bins = 11 11 15
  5 neighbor lists, perpetual/occasional/extra = 3 2 0
  (1) pair lj/charmm/coul/long, perpetual, skip from (5)
      attributes: half, newton on
      pair build: skip
      stencil: none
      bin: none
  (2) pair buck/coul/long, perpetual, skip from (5)
      attributes: half, newton on
      pair build: skip
      stencil: none
      bin: none
  (3) compute centro/atom, occasional
      attributes: full, newton on
      pair build: full/bin
      stencil: full/bin/3d
      bin: standard
  (4) compute rdf, occasional, copy from (5)
      attributes: half, newton on
      pair build: copy
      stencil: none
      bin: none
  (5) neighbor class addition, perpetual
      attributes: half, newton on
      pair build: half/bin/newton
      stencil: half/bin/3d/newton
      bin: standard
WARNING: Inconsistent image flags (../domain.cpp:812)
Per MPI rank memory allocation (min/avg/max) = 242.1 | 242.1 | 242.1 Mbytes
v_strainy v_strainx v_strainz Step Temp Lx Ly Lz v_p1 v_p2 v_p3 v_p4 v_p5 v_p6 v_vonmises KinEng PotEng TotEng E_vdwl E_coul E_long E_pair E_bond E_angle E_dihed E_mol Press Volume c_msdpb[4] c_msdi[4] c_msdma[4] 
4.5672851e-16 -1.1399283e-16 -4.8470877e-16        0    300.18499     62.33223    62.228893    87.955008 -0.017292816 -0.039250608 -0.017757826 -0.0035435147 -0.021960714  0.017474288  0.053597489    14731.001   -962944.29   -948213.29    106265.56   -338438.27   -738443.18   -970615.88    2933.6517    4177.6395    560.30762    7671.5989    244.43211    341165.66            0            0            0 
      0.0005 3.647852e-05 6.2874649e-05       50      299.411    62.334504    62.260007    87.960538 -0.024887278   0.03117304   0.01131592 -0.0030536544 -0.0022774261 0.0013406216  0.049727197    14693.019   -962914.13   -948221.12    106077.93   -338085.85   -738431.27   -970439.19    2973.6034    3993.6891     557.7666    7525.0591   -57.905032    341370.16 0.0092389968  0.015205058   0.25235731 
       0.001 0.00016778909 0.00013999671      100    299.24148    62.342689    62.291122    87.967321  0.002149657  0.030354293  0.034259909 -0.010286773 -0.010661752 -0.018422286  0.050965926      14684.7   -962908.23   -948223.53    105673.51   -337735.41   -738436.31   -970498.21    2902.2481    4132.0984    555.63685    7589.9834   -219.63602    341611.95  0.033008853  0.053286961   0.63114199 
      0.0015 0.00018052576 -2.8914003e-05      150    298.55468    62.343483    62.322236    87.952465  0.039805929  0.064253121   0.01000886 -0.0078743843 -0.031597685  0.018024475  0.079811585    14650.996   -962856.15   -948205.16    105564.68   -337595.19   -738420.69   -970451.21    2913.0955    4149.6361    532.32742    7595.0591   -375.25425    341729.21  0.063136896  0.098747126   0.97545983 
       0.002 -1.1774949e-05 -0.0004613192      200     302.1307    62.331496    62.353351    87.914433  0.032145809  0.057634264 -0.0078770483  -0.01617003 -0.0025280113  0.014182236  0.068400299    14826.483   -963024.47   -948197.99    105638.16   -337736.31   -738426.02   -970524.17    2921.4509    4036.4589    541.79169    7499.7015      -269.44    341686.27  0.092169999   0.13843509    1.1609776 
      0.0025 -0.00039007212 -0.00089907874      250    301.03427    62.307916    62.384465     87.87593 -0.0096233087  0.088610473  0.024929875 -0.0034907581  0.020192672 -0.020622924  0.099926031    14772.678   -962981.02   -948208.34    105618.13   -337688.94   -738433.31   -970504.12    2906.1097    4065.7026    551.29047    7523.1027   -341.86048    341577.78   0.11508056   0.16747847    1.2997585 
       0.003 -0.00084485459 -0.0012512325      300    299.73953    62.279568     62.41558    87.844956  -0.01849946  0.058539767 -0.045673404 -0.013396521 -0.018753083 -0.0076111014   0.10263599    14709.141   -962930.11   -948220.97     105764.7   -337793.64   -738433.05      -970462    2852.1049    4137.4383    542.33893    7531.8821    18.531446    341472.26   0.13049049   0.18830484    1.3936825 
      0.0035 -0.0011630268 -0.0014571236      350    298.76142    62.259736    62.446694    87.826847 0.0024688614  0.064254398 -0.012363491  0.023053013  0.016472518 -0.011874252  0.088233924    14661.142   -962878.35   -948217.21    105937.25   -337992.27   -738430.84   -970485.86    2884.5798    4160.2728    562.66065    7607.5133   -178.82973    341463.29   0.13933451   0.20482368    1.4709237 
       0.004 -0.0011660999 -0.0014929557      400    303.38958    62.259545    62.477809    87.823695 -0.037358998  0.085270227 0.0026511587 -0.0050477297   0.02259889 0.0060801246   0.11598188     14888.26   -963106.36    -948218.1    105725.14   -337821.32   -738437.68   -970533.86    2843.7042    4047.4698    536.32617    7427.5002   -166.33732    341620.11   0.14341578   0.21973242    1.5330747 
      0.0045 -0.00096547463 -0.0014498393      450    299.74638     62.27205    62.508923    87.827487  0.005558675   0.12581235 -0.012952023 -0.0050904644 -0.0040759071 0.0048147414    0.1312505    14709.477   -962940.52   -948231.04    105424.92   -337591.49   -738424.49   -970591.05    2931.2859    4186.5453    532.69743    7650.5286   -389.56822    341873.66   0.14604005   0.23526827    1.6066425 
       0.005 -0.00090628623 -0.0014828589      500    299.93721    62.275739    62.540037    87.824583   0.02928842   0.11086227  0.011875022  0.012432769 -0.0014442731  0.016240873  0.098179803    14718.841    -962969.9   -948251.06    105248.99   -337271.32   -738413.76   -970436.08    2919.3767    4018.7178    528.08197    7466.1765    -500.1257    342052.78   0.14997513    0.2511915    1.7151464 
      0.0055 -0.0011006175 -0.0016386075      550    299.89631    62.263626    62.571152    87.810884 -0.0090134178     0.149789 0.0033452679  0.025554109 0.0087630383 -0.0047443166   0.16020391    14716.835   -962953.57   -948236.74    105225.35   -337273.23   -738417.88   -970465.76    2944.0986    4024.8937    543.19846    7512.1908   -474.12074    342103.02   0.15550946   0.26561081    1.8432051 
       0.006 -0.0012885026 -0.001838689      600    297.78525    62.251915    62.602266    87.793286 0.0059033145   0.17013626 -0.010999745 -0.039424527 -0.0087939334  0.014460645   0.18856411    14613.238   -962811.54    -948198.3    105183.96   -337112.19   -738406.53   -970334.77    2908.2769    4065.2261    549.72515    7523.2282   -542.93882    342140.18   0.16248713   0.27797199    1.9564126 
      0.0065   -0.0014327 -0.0020371112      650    300.96389    62.242927    62.633381    87.775834 0.0013147052   0.17050633 0.0099033309  0.002968269 0.0018048351  0.013783864   0.16689109    14769.224   -962920.71   -948151.49    104902.38   -336975.43   -738421.21   -970494.26    2882.2507    4157.6174    533.68029    7573.5484   -597.82669    342192.77   0.16976935   0.28775181    2.0461599 
       0.007 -0.0016801043 -0.0023554381      700    302.22666    62.227505    62.664495    87.747836  0.010666968    0.1522359  0.037601107  0.014666476 -0.0052515658 -0.0036303119   0.13312311    14831.192   -962965.07   -948133.88    104962.96   -336997.28    -738416.9   -970451.22    2885.0393     4058.372    542.74199    7486.1533   -659.60679    342168.75   0.17736305   0.29609415    2.1350547 
      0.0075 -0.0019803818 -0.002794321      750    299.69225    62.208789     62.69561    87.709234 -0.015426756   0.16492517 -0.021279946 -0.026685572   0.03274641 -0.024951608   0.20208365    14706.821   -962839.01   -948132.19    105300.05   -337315.84   -738408.72   -970424.51    2891.2588    4132.1857    562.06006    7585.5045   -421.80596    342085.12   0.18513633   0.30360937    2.2013659 
       0.008 -0.0020815666 -0.0031333723      800    299.67422    62.202481    62.726724    87.679412 -0.0094133553    0.1642838 -0.0070465944 0.0073461443 -0.021800598 -0.00019179457   0.17706781    14705.936   -962829.81   -948123.87    105226.87   -337217.73   -738408.21   -970399.08    2892.5059      4117.14    559.62077    7569.2667   -486.30266    342103.84   0.19098623   0.30793649    2.2453861 
      0.0085 -0.0020101097 -0.0032891281      850    300.12723    62.206936    62.757839    87.665713 -0.034807042   0.19544121  -0.02222266 0.0037757364 -0.0054265205  0.025739192   0.22889675    14728.166   -962821.96   -948093.79    104952.59   -336979.79   -738404.12   -970431.33    2932.7249    4112.7025    563.94514    7609.3726   -455.33846    342244.56   0.19345962   0.30913121    2.3000884 
       0.009 -0.0018774661 -0.0034818219      900    300.03657    62.215203    62.788953    87.648764 0.0060654226   0.23217843  0.064758022 -0.015954846 0.0098772765 0.0049589203   0.20598757    14723.717   -962814.25   -948090.53    104893.68   -336843.62   -738422.18   -970372.12    2918.5512    4083.5757    555.75039    7557.8773   -996.79867    342393.54   0.19388109   0.31001785    2.3670906 
      0.0095 -0.0016052879 -0.0038193378      950    299.97499    62.232169    62.820067    87.619078 -0.051048811   0.18038035 -0.040374917  0.015959507 -0.0034983465 -0.011908551    0.2289747    14720.696   -962802.74   -948082.04    104890.43   -336876.33   -738433.59   -970419.49    2896.6648    4146.6813    573.40914    7616.7552   -292.64452    342540.57   0.19461043   0.31102946    2.4229295 
        0.01 -0.0011644332 -0.0041352065     1000    297.31807    62.259648    62.851182    87.591296   0.02511629   0.25521772  0.029060286  0.010044675 -0.015324715  0.029246979   0.23585607    14590.312   -962659.78   -948069.47    104743.16   -336730.68   -738397.99    -970385.5    2979.9638    4193.9109    551.84266    7725.7173   -1017.8281    342752.84   0.19660918    0.3110037    2.4900594 
      0.0105 -0.00076905714 -0.0044340676     1050    301.39131    62.284293    62.882296     87.56501  0.017612228   0.24078448 0.0058648912 -0.0053881818   0.01321488 0.0052103176   0.23077688    14790.199   -962845.72   -948055.52    104481.91   -336466.98   -738403.45   -970388.52    2919.4241    4068.2181    555.16324    7542.8054   -869.35305    342955.31   0.20051421   0.31095846    2.5623937 
       0.011 -0.00069982728 -0.0048476565     1100    299.11864    62.288608    62.913411    87.528632  0.026580742   0.25504887 -0.0046729307 -0.0006901238 -0.0019061665 -0.0094745118   0.24616372    14678.672   -962732.37   -948053.69     104572.6   -336527.84   -738411.02   -970366.26    2965.2144    4118.1788    550.49869     7633.892   -911.11665    343006.22   0.20755365   0.31291588    2.6323475 
      0.0115 -0.00085144352 -0.0053252688     1150    301.02724    62.279158    62.944525    87.486624 -0.00041281116   0.22184245 -0.0044119963 0.0032670256 0.0046312457  0.012217194   0.22549142    14772.332   -962821.27   -948048.93    104486.69   -336458.27    -738407.4   -970378.97    2901.4216    4096.7588    559.52705    7557.7074   -713.93254    342959.12   0.21659173   0.31695738    2.6821949 
       0.012 -0.0011659181 -0.005815067     1200    300.52212    62.259556     62.97564    87.443544 -0.011205292   0.30364946  0.029022162 -0.006298926  0.017959486 -0.0078439095   0.29892674    14747.545   -962790.46   -948042.92    104530.95   -336485.39   -738420.59   -970375.03    2909.2688    4145.8892    529.40837    7584.5664    -1057.542    342851.74   0.22611015   0.32320181    2.7418257 
      0.0125 -0.0015141669 -0.0062249462     1250    299.51095    62.237849    63.006754    87.407493 0.0048041311   0.29715634 -0.030906263   0.01103856 0.0060343783 -0.00089714016   0.31250963    14697.924   -962737.37   -948039.45    104645.29   -336539.65   -738412.63   -970306.99    2925.0395     4081.424    563.14985    7569.6133   -891.69903    342760.16   0.23467657   0.33059537    2.8069294 
       0.013 -0.0017310354 -0.0063743392     1300    299.68856    62.224331    63.037869    87.394353 -0.012628084   0.27931802 -0.015206041 0.0079908655 -0.012684269 0.0093338445   0.29483452    14706.639   -962720.89   -948014.25    104569.26   -336510.13   -738400.17   -970341.04    2905.1323    4125.8511    589.17035    7620.1537   -827.31769     342803.4   0.23957461   0.33672138    2.8703058 
      0.0135 -0.0018631077 -0.0062390521     1350    301.30871    62.216098    63.068983    87.406252 -0.0096033613     0.269186 -0.0016278215 -0.017356733  0.005832549 0.0022905431   0.27674028    14786.145   -962781.89   -947995.74    104630.44    -336568.2   -738404.94    -970342.7    2876.9081    4105.4223    578.47984    7560.8103   -848.60536    342973.92   0.24118384   0.34144358     2.918737 
       0.014 -0.0019171561 -0.0058604555     1400    300.14148     62.21273    63.100097    87.439552 -0.010700769   0.27522308 -0.0051453353  0.017115752 -0.0037043569 -0.017265208   0.28637241    14728.866   -962716.86      -947988    104498.59   -336398.62   -738414.66   -970314.69    2909.1608     4116.116    572.54676    7597.8235    -853.2839    343255.27   0.24172061   0.34466201    2.9846951 
      0.0145 -0.0018448148 -0.0055063006     1450    300.31128    62.217239    63.131212    87.470701 -0.00097576437   0.33984516  0.036232959 -0.0085571182  0.014411226 0.00072088292   0.32512484    14737.198   -962710.85   -947973.65    104065.59   -336024.02   -738388.49   -970346.92    2944.0664     4132.135    559.86866    7636.0701   -1233.9908    343571.77   0.24350501   0.34799684    3.0459623 
       0.015 -0.0019003479 -0.0055952201     1500    299.45789    62.213777    63.162326     87.46288  0.015930336   0.30398229  0.037050127 0.0067238476  0.010416761  0.019883111   0.28104012     14695.32   -962662.22   -947966.91    103951.15   -335807.54   -738403.77   -970260.16    2897.2927    4137.9459    562.69503    7597.9336   -1174.3162    343691.24   0.24925139    0.3545703    3.1128887 
      0.0155 -0.0021281765 -0.0061209555     1550    300.57016    62.199576    63.193441    87.416639 -0.014228358   0.33212606  0.013139915    0.0216269 0.0038067829  0.017362721   0.33701976    14749.902   -962702.64   -947952.73    104142.57   -336049.53   -738378.98   -970285.95    2927.2226    4115.9579    540.13032    7583.3109   -1089.0291     343600.3   0.25964089   0.36429367    3.1725718 
       0.016 -0.0023066481 -0.0068330379     1600    299.34439    62.188452    63.224555    87.354008 0.0037959989   0.34694066  -0.00997633  0.045330353 0.0020172399 0.0049857295   0.35904754     14689.75   -962624.67   -947934.92    104343.49   -336219.61   -738403.68    -970279.8    2922.8325    4182.0267    550.26702    7655.1262   -1121.0143    343461.74   0.27252059   0.37645184    3.2241143 
      0.0165 -0.0022187616 -0.0075703921     1650    299.43035     62.19393     63.25567    87.289154 -0.019292776   0.33474609 -0.010883519  0.013788599 -0.035432738 -0.033841603   0.36084568    14693.968   -962620.49   -947926.52    104408.03   -336250.85   -738394.68   -970237.49    2887.6459    4158.8121    570.54267    7617.0006   -1001.9567    343405.89   0.28582116   0.38996941    3.2529717 
       0.017 -0.0018331758 -0.0082004938     1700    300.20363    62.217964    63.286784    87.233734 -0.010194838   0.30183686 -0.00051461354 -0.0086707678  0.012353959 0.0086458118   0.30877922    14731.915    -962637.3   -947905.38    104272.65   -336107.55   -738393.64   -970228.53    2905.3782     4136.176    549.67836    7591.2325    -957.7347    343489.36   0.29805837   0.40324274    3.2769159 
      0.0175 -0.0013136089 -0.0086662951     1750    302.50334     62.25035    63.317899    87.192764  0.023115494   0.37071116 -0.0068185605  0.027685091 -0.0012644731 -0.0071059197   0.36685067    14844.769   -962743.94   -947899.17    104108.51   -335986.01   -738401.89    -970279.4     2859.321    4119.3161    556.81986    7535.4569   -1273.1576    343675.63   0.30902034   0.41596221    3.2938607 
       0.018 -0.00093319339 -0.0089682218     1800    300.90595    62.274062    63.349013    87.166208 0.0031451586   0.33132582  0.016029662 -0.0059553046 0.0062510546 -0.010332079   0.32277545     14766.38   -962673.66   -947907.28    103931.14   -335825.79   -738376.23   -970270.88    2810.5154    4204.7527    581.95448    7597.2226   -1153.0575    343870.72   0.31997207   0.42799212    3.3204125 
      0.0185 -0.0010598477 -0.0091264868     1850    301.69153    62.266167    63.380127    87.152288  0.047878534   0.36553321 -0.034433485 -0.010744793  0.020765723 -0.0080398015   0.36832116    14804.931   -962718.12   -947913.19    103770.92   -335621.94   -738399.89   -970250.91    2844.2603    4145.2313    543.29782    7532.7893   -1246.7415    343941.07   0.33083434   0.43836022    3.3551124 
       0.019 -0.0015339847 -0.0091907147     1900    298.97249    62.236613    63.411242    87.146639  0.019416531   0.37901483 -0.0080777022  0.027766606  -0.01639409   0.01930827   0.37972547      14671.5   -962589.72   -947918.22    103910.48   -335652.19   -738409.04   -970150.75    2849.4106    4156.9087    554.71515    7561.0345   -1284.1637    343924.29    0.3405596    0.4480716    3.3950872 
      0.0195 -0.0019403582 -0.009147315     1950    298.78108    62.211283    63.442356    87.150456 -0.026381857   0.41387639 0.0083354463 -0.0037181056 0.0015673423  0.025261444   0.42627609    14662.106   -962558.04   -947895.93    103980.42   -335752.94   -738381.09   -970153.61     2857.176    4168.3957    569.99482    7595.5665   -1302.1794    343968.07   0.34726939    0.4571393    3.4323246 
        0.02 -0.0021599171 -0.0089716319     2000    300.31816    62.197598    63.473471    87.165908 -0.019993255   0.39858435 -0.030535132 -0.021806841 0.0072371088  0.026765204   0.42832675    14737.536   -962587.97   -947850.44    103790.83   -335646.32   -738397.29   -970252.78    2903.6732    4160.9476    600.18048    7664.8012   -1145.0151    344122.06   0.34977253   0.46445607     3.454974 
      0.0205 -0.002302919 -0.0087680906     2050    299.98789    62.188684    63.504585    87.183811  0.010359812   0.42532834  0.038926156  0.034591236 0.0062748355 0.0048381844   0.40612657    14721.329    -962559.2   -947837.88    103577.21   -335401.37   -738391.79   -970215.96    2857.3833    4235.0302    564.33801    7656.7515   -1561.3597    344312.11   0.35066155   0.47149776    3.4749616 
       0.021 -0.0024622191 -0.0087427822     2100    298.87578    62.178755      63.5357    87.186037  0.010629328   0.43019431 0.0073795512  0.002260256 -0.0041243222  0.011366904   0.42173784    14666.754   -962505.21   -947838.45    103514.49   -335206.68   -738379.45   -970071.64    2855.9199    4135.3772    575.13793    7566.4351   -1474.4739     344434.6   0.35499646   0.47978731    3.5046785 
      0.0215 -0.0026268701 -0.0089146447     2150    296.74327    62.168491    63.566814     87.17092 -0.019972057   0.46383245 0.0022284174 0.0081096095 -0.020042176 -0.0047096707   0.47464501    14562.105   -962360.71   -947798.61    103425.42   -335092.51   -738371.04   -970038.13    2894.6138    4218.2273    564.57682    7677.4179   -1467.5181    344486.66   0.36408914   0.48870908    3.5221215 
       0.022 -0.0027992594 -0.0091564057     2200    301.33895    62.157746    63.597929    87.149656 -0.0060605953   0.43519485  0.028538726 -0.0023670281 0.0021999408 0.0028967465   0.42507981    14787.629    -962540.3   -947752.67    103474.15   -335131.09   -738382.07   -970039.01    2871.1611    4093.4106    534.13658    7498.7083    -1505.627    344511.65   0.37580761   0.49764656    3.5510397 
      0.0225 -0.0028711623 -0.0095187536     2250    302.48004    62.153264    63.629043    87.117786 -0.0004281376   0.50230757  0.014566138 -0.0043159307  0.002768905 -0.0051413914   0.49556841    14843.626    -962557.6   -947713.98    103272.82   -335042.52   -738380.37   -970150.07    2934.4034    4117.2597    540.79979     7592.463   -1698.9738     344529.3   0.38918691   0.50805928    3.5998115 
       0.023 -0.0029956378 -0.010089158     2300    301.39462    62.145505    63.660157    87.067616  0.015995978   0.44955246 -0.022314097  0.010002233  0.012874356 0.0098324347   0.45512183    14790.361   -962511.25   -947720.89    103313.57   -335092.44   -738384.58   -970163.45    2949.2443    4137.6359    565.31881    7652.1991   -1458.1276    344456.26   0.40492724   0.52286429    3.6322126 
      0.0235 -0.0031203984 -0.010685182     2350    299.50111    62.137729    63.691272    87.015193 -0.029853288   0.49214259 0.0055676007  0.020311612 -0.0063928735  0.010351431   0.50687921    14697.441   -962427.41   -947729.97    103657.51   -335253.68   -738380.62   -969976.79    2868.6664    4128.9097    551.80089    7549.3771   -1539.1296    344374.02   0.42188502   0.53952454    3.6503348 
       0.024 -0.0029759145  -0.01111381     2400    300.08197    62.146735    63.722386    86.977493 -0.024043759   0.49038594 -0.029092259 -0.031985228  0.012443345 0.0034843806   0.52041387    14725.945   -962424.74    -947698.8    103651.83   -335316.02   -738374.78   -970038.96    2893.5898    4166.9057     553.7274     7614.223   -1438.4404     344442.9   0.43720065   0.55220917    3.6832929 
      0.0245 -0.0026366431 -0.011372839     2450    301.01179    62.167882    63.753501     86.95471  -0.02213287   0.47240784  0.023321122  0.009367606 -0.0012478127 -0.0070807001   0.47389458    14771.574   -962456.11   -947684.54    103515.48   -335277.47   -738386.05   -970148.04    2905.1438    4229.5827    557.20649    7691.9331     -1558.01    344638.05   0.44795656   0.56293446    3.7190256 
       0.025 -0.0021920679 -0.011521803     2500    299.97462    62.195594    63.784615    86.941608 -0.012069695   0.48162053 -0.013334615 0.0027223948 -0.0029794645 -0.015427543   0.49509495    14720.677   -962415.51   -947694.84    103405.95   -335049.06   -738363.13   -970006.25    2872.0239    4154.5271    564.18071    7590.7317   -1500.8347    344907.97   0.45390528   0.57430691    3.7548865 
      0.0255 -0.0017386493 -0.011630123     2550    299.97592    62.223856     63.81573     86.93208  0.029306839   0.53720024 -0.0034391158  0.010281423  0.018422764 -0.00025267395   0.52630312    14720.741   -962411.07   -947690.33    103078.11   -334760.44   -738374.61   -970056.94    2882.8226    4208.0092    555.03932    7645.8711   -1852.3496    345195.19   0.45997632   0.58501874     3.782606 
       0.026 -0.0014878298 -0.011964326     2600     300.2851     62.23949    63.846844    86.902686 0.0043024162   0.48375964  0.040038305 -0.0034135852 -0.0078358626 0.0028364003   0.46288849    14735.913   -962409.96   -947674.04    102972.45   -334616.25   -738371.06   -970014.86    2870.3923    4156.1481    578.36404    7604.9045   -1737.3151    345333.46   0.47288752   0.59858781    3.8162345 
      0.0265 -0.0014625691 -0.012587462     2650    300.13894    62.241065    63.877959    86.847878  0.033387734   0.51808844  0.020555725 0.0022820391 -0.0061426928   0.02963025   0.49404635    14728.741   -962380.27   -947651.53    102967.77   -334615.74   -738376.58   -970024.55    2913.0525     4157.674    573.54853    7644.2751   -1881.8386    345292.59   0.49203381   0.61851374    3.8480538 
       0.027 -0.0016267502 -0.013350273     2700    300.62308    62.230831    63.909073    86.780785  0.010472894   0.53660276 -0.029515285  0.022318779 -0.010952074 0.0010777999   0.54891564    14752.499   -962387.16   -947634.66    103044.07    -334569.4   -738363.81   -969889.13    2881.3832    4070.3019    550.28974    7501.9748   -1702.6412    345137.14   0.51410303   0.64365273    3.8809917 
      0.0275 -0.0019473701 -0.013964981     2750    301.81222    62.210846    63.940187    86.726718 0.0095242025    0.5249496 -0.030725854  -0.01677971 -0.0074029405 -0.023390387   0.53914723    14810.854   -962421.84   -947610.99    103256.95   -334878.82   -738381.21   -970003.08    2966.6428    4062.4931    552.09976    7581.2357   -1657.2019    344979.21    0.5363029   0.66690626    3.9296948 
       0.028 -0.0022932766 -0.014151613     2800    299.22039    62.189285    63.971302    86.710303 -0.023904233   0.49094173 -0.033326228 0.0030665427 -0.0096054467 -0.00014667442    0.5199145    14683.665   -962280.21   -947596.55    103395.62   -334942.79   -738369.07   -969916.23    2903.8177    4161.3525    570.85263    7636.0228   -1426.7991    344962.16   0.55338611   0.68146828    3.9586721 
      0.0285 -0.0024453823  -0.01394041     2850    298.81082    62.179804    64.002416    86.728879   0.01119701   0.56401174 -0.0061217931 -0.0083717159  0.027712408  0.020432737   0.56501755    14663.566   -962242.14   -947578.57    103280.13   -334854.48   -738383.89   -969958.24    2930.0916     4199.244     586.7728    7716.1083   -1872.1505    345151.25    0.5620373   0.68809271    3.9668761 
       0.029 -0.0024509366 -0.013540988     2900    299.02632    62.179458    64.033531     86.76401 -0.020374842   0.54242788 -0.029133307 -0.012620839 0.0024504159 -0.0057020201   0.56775551    14674.141   -962228.73   -947554.59    102955.56   -334471.33   -738361.96   -969877.73    2920.0802    4179.3105    549.60666    7648.9974   -1621.5799       345457   0.56449733   0.69035055    3.9602472 
      0.0295 -0.002504641 -0.013174438     2950     300.0891     62.17611    64.064645     86.79625  0.036896302   0.55079376  0.052159307  0.013707666 -0.023917068 0.0054063347   0.50877048    14726.295   -962264.45   -947538.15    102697.28   -334256.89   -738353.97   -969913.58     2918.894    4187.7847    542.45563    7649.1343   -2104.9408    345734.67   0.56461355    0.6933803    3.9667486 
        0.03 -0.0027239924 -0.013039106     3000    298.03381    62.162438     64.09576    86.808153 -0.024556658   0.59254029  0.012280544 0.0058833037  0.016430804 -0.028692594   0.60234297    14625.436   -962141.46   -947516.03    102544.23   -334023.85   -738359.97   -969839.59    2893.6272    4227.1995     577.2947    7698.1214   -1908.9207    345873.95   0.56776642   0.70232893    3.9660182 
      0.0305 -0.003094377 -0.013208207     3050    301.02103    62.139351    64.126874     86.79328  0.026614873   0.58010697    0.0574811 -0.019325872  0.017515949  0.020826683   0.54181561    14772.028   -962270.46   -947498.43    102435.91   -333986.44   -738358.89   -969909.42    2945.5929     4131.093    562.27534    7638.9613   -2185.0578    345854.06   0.57813183   0.71714331    3.9786058 
       0.031 -0.0034247214 -0.013751817     3100    302.88849     62.11876    64.157989    86.745467 -0.022504014   0.57063974 0.0095674443 -0.012190575 -0.030217837 0.0076314306   0.58067634     14863.67   -962367.58   -947503.91    102620.99   -334195.15   -738357.93   -969932.09    2874.4971    4139.0889    550.92366    7564.5097   -1834.7008    345716.66   0.59794734   0.73784662    4.0171763 
      0.0315 -0.0034808493 -0.014545588     3150    300.44138    62.115261    64.189103    86.675651 -0.059572825   0.63773318 -0.014146032  0.022882145 0.0019210853 -0.015871277   0.67746618    14743.583   -962257.97   -947514.39    102935.83   -334437.86   -738331.83   -969833.87    2920.8967    4089.8474    565.15336    7575.8975   -1855.4629    345586.47   0.62335094   0.76296801    4.0712851 
       0.032 -0.0031372969 -0.015239938     3200    300.17485    62.136675    64.220218    86.614579 -0.021728269   0.58721441 -0.037304409  0.005862267 -0.0065834191 0.0053532984   0.61713683    14730.503   -962228.52   -947498.02    102792.79   -334311.02   -738364.87   -969883.11    2921.5855    4194.5813    538.41755    7654.5844   -1737.5828    345629.49   0.64580445   0.78620986    4.1119653 
      0.0325 -0.0026373161 -0.015646892     3250    301.51073     62.16784    64.251332    86.578786  0.011153399   0.65227002  0.016577805 0.0036556913 -0.026653747  0.034637731    0.6429253    14796.059   -962277.98   -947481.92    102556.76   -333973.21    -738345.9   -969762.35    2878.7342    4079.4472    526.18826    7484.3697   -2237.0301     345827.4   0.66213775   0.80443315    4.1269312 
       0.033 -0.0022908203 -0.015882804     3300    298.00368    62.189438    64.282446    86.558036 -0.013131461   0.61650908 -0.0080462313 -0.001255643 0.00078454592 -0.0029717659   0.62713975    14623.957    -962076.7   -947452.75    102387.82    -333806.2   -738336.07   -969754.44    2913.7629    4195.5368    568.44198    7677.7417    -1958.488    346032.13   0.67606816   0.81900533    4.1338458 
      0.0335 -0.0022247246 -0.016053824     3350    300.81218    62.193558    64.313561    86.542994   0.06289901   0.63859466 -0.039348515  0.014508432  -0.01715883 0.0044359176   0.63428486    14761.779   -962188.66   -947426.88    102230.93   -333653.58   -738347.88   -969770.53    2895.8538    4140.8022    545.21251    7581.8686   -2178.2882    346162.38   0.69091194   0.83180983    4.1519985 
       0.034 -0.0024079848 -0.016219602     3400    301.34717    62.182135    64.344675    86.528413 0.0085162125   0.65487434  0.041218946 -0.00088434689 0.0060979146 -0.0081257946   0.63089033    14788.032   -962193.92   -947405.89    102141.75   -333612.74   -738350.88   -969821.87    2911.9755    4176.2662    539.70827      7627.95    -2317.985    346207.91   0.70680849     0.846589    4.1657307 
      0.0345 -0.0027624644 -0.016526261     3450     298.2385     62.16004     64.37579    86.501441 -0.027400252   0.67403997  0.022741647  0.013553996 -0.020960868 -0.0050497501   0.67919567    14635.481   -962034.27   -947398.79    102280.83   -333707.36   -738332.63   -969759.15    2933.0901    4243.9949    547.79386    7724.8788   -2202.0935    346144.31   0.72513168   0.86788253    4.1820583 
       0.035 -0.0030940768 -0.016895638     3500    302.59139    62.139369    64.406904    86.468952 -0.0051655354   0.64383764 -0.029719363 0.0023579573  0.014409529   0.02070221    0.6630753     14849.09   -962253.12   -947404.03     102347.1   -333835.29   -738362.65   -969850.84    2898.4458    4141.0166    558.25498    7597.7174   -2003.2988    346066.42   0.74555001   0.88997641    4.2095026 
      0.0355 -0.0034152609 -0.017160894     3550    298.25874    62.119349    64.438019    86.445622 0.0010513727    0.6710658  0.010868143 -0.033377799 -0.015116389  -0.03413461   0.67079176    14636.474      -962047   -947410.52    102517.07   -333919.78    -738325.3   -969728.01    2952.1419    4165.8189    563.04914    7681.0099    -2246.847    346028.66   0.76613948   0.90741012     4.254626 
       0.036 -0.003646279 -0.017272981     3600    298.90516    62.104949    64.469133    86.435763 -0.025997064   0.66533466 -0.001422262  0.019544246 -0.011364014  0.010868596   0.68076565    14668.195   -962064.61   -947396.41    102520.98   -333929.29    -738338.7   -969747.01    2954.8265    4178.2944    549.27947    7682.4003   -2098.5783    346076.02   0.78275194   0.92152839    4.2766497 
      0.0365 -0.0036091328 -0.017276934     3650    300.56513    62.107265    64.500248    86.435415 -0.031708457   0.62949016 -0.034919181 -8.428507e-06 -0.00066793115 0.0021044656   0.66282085    14749.655   -962126.76    -947377.1    102444.17   -333811.86   -738337.64   -969705.34    2900.6781    4102.4055    575.49469    7578.5783   -1851.6737    346254.56   0.79347756   0.93481111    4.2759241 
       0.037 -0.0033188705 -0.017149814     3700    300.19679    62.125358    64.531362    86.446596  0.016846166   0.71371699   0.05140419  0.020471502  0.019715964 0.0080140616   0.68217066     14731.58   -962077.07   -947345.49    102088.75   -333521.06   -738335.74   -969768.05    2919.1332    4211.6866    560.15821     7690.978   -2572.4726    346567.34   0.80004668   0.94357607    4.2955779 
      0.0375 -0.0030948331  -0.01720481     3750     301.0006    62.139322    64.562476    86.441759    0.0532562   0.70255469 -0.0099497372  -0.02050271 -0.017276079 -0.022317068   0.68576502    14771.025   -962102.16   -947331.13    101849.36   -333158.99   -738322.47   -969632.09    2871.0924    4127.9113    530.93172    7529.9354   -2453.6924    346792.97   0.81256589   0.95440359    4.3501098 
       0.038 -0.0031412861 -0.017528291     3800    298.14942    62.136427    64.593591    86.413307 -0.0033054925   0.66609941  0.031589272  0.027127916 -0.0089876841  0.027409902   0.65625137    14631.109   -961928.92   -947297.81    101935.58   -333195.31   -738312.61   -969572.34    2902.8272    4209.2801    531.30885    7643.4162   -2284.3431    346829.74   0.83234033   0.97291642    4.3935057 
      0.0385 -0.0033252854 -0.018026799     3850    300.77185    62.124958    64.624705    86.369461  0.018727199   0.67888554  0.023587297 -0.0065687249 -0.021259948 0.0049055009   0.65892475      14759.8   -962005.91   -947246.11    102031.25   -333313.09   -738319.41   -969601.26     2883.767    4131.3939    580.18927    7595.3501   -2372.5637    346756.72   0.85756968    0.9976449    4.4175973 
       0.039 -0.0035331439  -0.01865014     3900    300.97818    62.112001     64.65582    86.314635  0.014151387   0.70894907  0.010096453  0.019906654 -0.0038408025 0.0028050722   0.69773513    14769.925   -961975.76   -947205.84    102128.05   -333443.76   -738314.98   -969630.69    2867.3601    4232.0916    555.47383    7654.9256   -2412.0303    346631.15   0.88921942    1.0250891    4.4518203 
      0.0395 -0.0035923456 -0.019327902     3950    300.42833    62.108311    64.686934    86.255022 -0.049497076   0.69804741 -0.030178745 -0.0075708252 -0.0084772013  0.036808512   0.74108487    14742.942   -961929.83   -947186.89    102299.85    -333560.2      -738347   -969607.35     2946.999    4176.9023    553.61764     7677.519   -2034.2844    346537.85   0.92346426    1.0532348    4.4945118 
        0.04 -0.0033425483 -0.019816702     4000    301.18842    62.123882    64.718049     86.21203  0.031065821    0.7248194 -0.0043403418 -0.0030552141 -0.0015875446 -0.031131887    0.7141806    14780.242   -961962.96   -947182.72    102138.78   -333408.28   -738319.73   -969589.23    2899.2321    4175.8521    551.19142    7626.2756   -2472.3904     346618.6   0.94899655    1.0788343    4.5287436 
      0.0405 -0.0030068559 -0.020135678     4050    301.83526    62.144806    64.749163    86.183974 -0.0095500812    0.7517773 -0.011931246  0.029841977 -0.023725598 -0.010663685    0.7655974    14811.984   -961993.03   -947181.05     101925.4   -333191.71   -738329.18   -969595.49    2908.9054    4115.9872    577.56594    7602.4585    -2402.487    346789.16   0.96612435    1.1034329    4.5505508 
       0.041 -0.0028098219 -0.020354798     4100    301.40858    62.157088    64.780278    86.164702 -0.002133532    0.7052685 -0.0066320822 -0.0011613851 -0.020047941   0.01926236   0.71129675    14791.046   -961980.91   -947189.87    101862.18   -333291.13   -738323.55   -969752.51    2978.5966    4216.9198      576.077    7771.5934   -2291.3163    346946.77   0.98261932    1.1245803    4.5736772 
      0.0415 -0.0027672911 -0.020417037     4150    299.50158    62.159739    64.811392    86.159227  0.010081827   0.76372123  0.020374812 -0.0068170275  0.017996975 -0.035390913   0.75179102    14697.464   -961926.55   -947229.08    102009.02   -333232.13   -738313.01   -969536.13    2890.8487    4135.0228    583.70912    7609.5806   -2612.6421    347106.16   0.99930328    1.1389046    4.6177321 
       0.042 -0.0028053034 -0.020299323     4200    299.11007    62.157369    64.842506    86.169581 0.0078786837    0.7441884 -0.018912261  0.004629444 -0.017295898  0.031805789   0.75272356    14678.251   -961895.82   -947217.57    101896.16   -333108.03   -738318.25   -969530.12    2954.2946    4110.2813    569.72493    7634.3009   -2411.8919    347301.29    1.0111184    1.1491809     4.637415 
      0.0425 -0.0028989978 -0.020128858     4250     299.1851    62.151529    64.873621    86.184574  0.008414182   0.75869583 0.0055694509 -0.0061894712 -0.00011093836  0.038326501   0.75470969    14681.933   -961862.04   -947180.11     101571.8    -332816.1   -738321.25   -969565.55    2942.3872    4223.1823    537.93709    7703.5066   -2541.9178    347495.75    1.0194054    1.1601974    4.6494202 
       0.043 -0.0030551994 -0.020184078     4300    300.81207    62.141793    64.904735    86.179717 -0.0030995631   0.78329855  0.037935043 -0.0072226215 -0.021211196  0.018953754    0.7683881    14761.773   -961929.19   -947167.41    101525.54   -332679.08   -738308.69   -969462.23    2854.8928    4127.6128    550.53198    7533.0376   -2691.4517    347588.36    1.0338459    1.1782605     4.663798 
      0.0435 -0.0032065875 -0.020590168     4350    298.60087    62.132356     64.93585       86.144  0.021457633   0.74478881  0.032789046  0.027925274 0.0085183823 0.0051016206   0.71956602    14653.263   -961787.17   -947133.91    101758.92   -332932.48   -738306.35   -969479.91    2921.9657    4213.9366    556.83676    7692.7391   -2628.6224    347558.08    1.0594376    1.2062477    4.6791327 
       0.044 -0.0033450686 -0.021102561     4400     300.0989    62.123725    64.966964    86.098932  -0.02876652   0.73983532 -0.048812167 -0.014374718   0.00604167  0.021981435    0.7802158    14726.776   -961813.78      -947087    101968.74   -333060.52   -738310.23   -969402.01    2874.5471    4173.6503    540.03566     7588.233   -2178.6549    347494.41    1.0899319    1.2367922    4.6781133 
      0.0445 -0.0033117231  -0.02150482     4450    300.07241    62.125803    64.998079    86.063551 -0.0083519869   0.78050899  0.028726213 0.0049810151 0.0032868095  0.016436025   0.77158548    14725.476   -961766.31   -947040.83    101988.07      -333107   -738308.17    -969427.1    2927.7279    4156.3674    576.70007    7660.7954   -2634.7009     347529.6    1.1184309    1.2620845    4.7006268 
       0.045 -0.003049567 -0.021717378     4500    302.13497    62.142144    65.029193    86.044856 -0.0016012683   0.79713539   -0.0261076 -0.0099191165 -0.020642477  0.012231869   0.81251294    14826.692   -961836.44   -947009.75    101617.95   -332804.31   -738288.42   -969474.79    2894.6427     4158.357    585.34678    7638.3465   -2531.2165    347711.86      1.14026    1.2812803    4.7460787 
      0.0455 -0.0028118242 -0.021872994     4550    302.89368    62.156963    65.060308    86.031169 -0.0049947984   0.80779843  0.016039301 -0.023748792  -0.01174956  0.013152035    0.8041169    14863.924    -961866.4   -947002.47    101353.38   -332518.57    -738307.8   -969472.99    2942.8443    4113.7553    549.99611    7606.5958   -2693.7838    347905.84    1.1575943    1.3009668    4.7732745 
       0.046 -0.0027679837 -0.022125456     4600    300.86287    62.159696    65.091422    86.008963 0.0076766022   0.79335186  0.023889326 -0.0020791096 0.0067838381 -0.018892681    0.7784808    14764.267   -961782.22   -947017.95    101453.53   -332550.31   -738295.25   -969392.04    2913.7709    4124.3363    571.71077     7609.818   -2713.7685    347997.68    1.1769597    1.3248048    4.7925288 
      0.0465 -0.002906115 -0.022458735     4650    299.13408    62.151086    65.122536     85.97965  0.050493832   0.80956929 0.0081389101 0.0021290472 -0.0089539474 0.0044511987   0.78131533     14679.43   -961697.58   -947018.15    101607.41    -332707.4    -738306.8   -969406.78    2931.1208    4204.5291    573.55704     7709.207   -2856.1626    347997.16    1.2015494     1.349491    4.8377658 
       0.047 -0.0031738221  -0.02272546     4700    300.17883    62.134399    65.153651     85.95619 -0.055661713   0.82461215 -0.021831498 -0.011222491 -0.010562948   0.02860137   0.86568666    14730.698   -961739.38   -947008.68    101463.72   -332566.62   -738284.29   -969387.19    2920.9106    4155.8863    571.00679    7647.8037   -2457.8302    347974.98    1.2268062    1.3716559    4.8829288 
      0.0475 -0.003479086 -0.022911739     4750    301.27429    62.115371    65.184765    85.939806   0.03910857   0.81213717 0.0067440848 -0.0099313382 -0.017215042  0.016602713   0.79098121    14784.456   -961790.22   -947005.76    101228.63   -332359.61   -738306.88   -969437.86    2859.2639    4171.6988    616.67373    7647.6365   -2822.5671     347968.2    1.2496091    1.3942893    4.9074403 
       0.048 -0.0038501541 -0.023137218     4800    300.05803    62.092241     65.21588    85.919974 -0.013681408   0.86557425  0.017007703  0.002148958 -0.028086419 0.0020211381   0.86570284     14724.77   -961720.33   -946995.56    101318.72   -332408.71   -738302.45   -969392.43    2902.1842    4171.1528    598.77069    7672.1077   -2858.4606    347924.36    1.2731681    1.4201967    4.9202034 
      0.0485 -0.0041087068 -0.023356642     4850    300.85113    62.076125    65.246994    85.900674 -0.044035431   0.85412237 -0.015181145 -0.00026064195 -0.0045858395  0.018707631   0.88471325     14763.69   -961757.68   -946993.99    101252.39   -332339.89    -738295.5      -969383    2916.2328    4144.6197    564.46286    7625.3154   -2615.0368    347921.83    1.2953745    1.4445749    4.9644927 
       0.049 -0.0041358853 -0.023571968     4900    298.95119    62.074431    65.278109    85.881735 -0.035650813   0.87550218  0.024410326 -0.00044905024 -0.016326431  0.012361021   0.88336905    14670.454   -961663.08   -946992.62     101258.9   -332293.41   -738298.14   -969332.65    2915.1145    4187.3395    567.12261    7669.5766   -2843.1999    348001.51    1.3139073    1.4678402       5.0122 
      0.0495 -0.0040245125  -0.02376559     4950    300.50949    62.081373    65.309223    85.864705  0.049435822   0.83730959 0.0098923054 -0.023342381 -0.029361048 0.0089809646    0.8111269    14746.925   -961721.49   -946974.56    101158.26   -332183.72   -738291.43   -969316.89    2914.6415    4089.0935    591.66751    7595.4025   -2949.7088    348137.27    1.3294167    1.4915926    5.0426723 
        0.05 -0.0039465167 -0.023943092     5000    299.28931    62.086235    65.340338    85.849093 -0.011644469   0.84163581 0.0063141418 0.0074274492  -0.01032527 -0.014611328   0.84511054    14687.047   -961635.85    -946948.8    100978.35   -332021.41   -738285.54    -969328.6    2930.9622    4168.1294    593.66362    7692.7552   -2751.2311    348267.07    1.3505304    1.5146538    5.0559616 
      0.0505 -0.0038744057  -0.02420005     5050    296.07528     62.09073    65.371452    85.826492 -0.020392185   0.89381602 -0.012019088 0.0098529514 -0.011227806  0.010763671   0.91060914    14529.325   -961440.12   -946910.79    101124.25    -331931.8   -738275.12   -969082.67    2901.0452    4158.5319    582.97905    7642.5561   -2833.8013     348366.4     1.382567    1.5377836    5.0707556 
       0.051 -0.0037470196  -0.02446486     5100    301.43697     62.09867    65.402566    85.803201  0.031927101   0.90769978  0.012807177 -0.0053241172 -0.0076974667 -0.0073411794   0.88572712    14792.439   -961621.62   -946829.18    100979.68   -331926.98   -738273.56   -969220.85    2987.6488    4035.2807    576.29966    7599.2292   -3133.2644    348482.18    1.4144101    1.5604817    5.0816017 
      0.0515 -0.0036689783  -0.02472475     5150    303.28759    62.103535    65.433681    85.780342 -0.0042807508   0.88668422 -0.026352095 -0.023185835 -0.0078693954 -0.011618352   0.90342349    14883.255   -961669.17   -946785.91    100879.95   -331914.61    -738270.1   -969304.76    2935.7066    4136.4045    563.48286     7635.594   -2816.1901    348582.39    1.4388649    1.5870288    5.0843217 
       0.052 -0.0036136192 -0.025004088     5200    300.92473    62.106985    65.464795    85.755773  0.020290681   0.89421652 -0.0066237089 0.0035950002  -0.00279718 -0.00063252435   0.88772484    14767.302   -961561.08   -946793.78    100862.96   -331837.95   -738273.08   -969248.07      2940.21    4179.6198    567.16308    7686.9929   -2986.7045    348667.63    1.4587936     1.617958    5.1207408 
      0.0525 -0.0036150947  -0.02531075     5250    301.27687    62.106893     65.49591    85.728801 0.0046566137   0.90048378 0.0024958748 -0.003866657  -0.02154339 -0.018937091   0.89830935    14784.583   -961594.36   -946809.77    100888.18    -331789.7    -738258.6   -969160.13    2929.3869    4058.5979    577.78478    7565.7696   -2985.8912    348723.11    1.4811748    1.6505235     5.169556 
       0.053 -0.0037395177 -0.025628175     5300    301.29744    62.099138    65.527024    85.700882   0.01782095   0.87262076 -0.013355643 -0.019579015 -0.0036715395 0.0047531501   0.87152893    14785.592   -961585.38   -946799.78    100949.94   -331909.53   -738267.14   -969226.74    2893.0624    4196.1392      552.159    7641.3606   -2885.3888     348731.6    1.5079727     1.683091    5.2247436 
      0.0535 -0.004004956 -0.025820831     5350    301.02609    62.082592    65.558139    85.683937 -0.013167403   0.91415769   0.01195126 -0.013461696  0.014281894  0.019305005   0.91626592    14772.276   -961568.87   -946796.59    100961.03   -331880.02    -738265.8   -969184.79    2937.8474    4112.9269    565.14924    7615.9235   -3003.3442    348735.27     1.533238    1.7130578    5.2377397 
       0.054 -0.0042903278 -0.025961617     5400    299.05926    62.064804    65.589253    85.671554 -0.013733361   0.91720573 -0.0082476142 -0.018715812 -0.023559964 0.00081471573   0.92967136    14675.758   -961466.45   -946790.69     101003.9   -331893.03    -738256.1   -969145.23    2931.5092    4160.6769    586.58782     7678.774   -2945.0605    348750.41    1.5594576    1.7409044    5.2446797 
      0.0545 -0.0043872116 -0.026135244     5450    298.35146    62.058765    65.620368    85.656283  0.024700207   0.89425904 -0.0003095489 -0.024692053 0.0086075259 0.0088490831   0.88362424    14641.024   -961405.87   -946764.84    100887.82   -331723.69   -738246.65   -969082.52    2956.7648    4154.1184    565.76907    7676.6523   -3022.1226    348819.71    1.5902632    1.7650592    5.2517203 
       0.055 -0.004438268 -0.026278051     5500    302.67169    62.055583    65.651482    85.643722 -0.010604404   0.90304288  0.011358775 -0.0066188717 -0.0079773748  0.012384743    0.9032993    14853.031   -961591.47   -946738.44    100737.27   -331627.37   -738265.06   -969155.16    2878.2421    4116.5817    568.86838    7563.6921   -2973.2618    348916.03    1.6204108    1.7860333    5.2779458 
      0.0555 -0.0046227015  -0.02640405     5550     298.8802    62.044087    65.682596     85.63264 0.0045164922    0.9615368  0.017304539  0.029147511  0.010431231  0.022787627    0.9530194    14666.971   -961391.82   -946724.85    100528.35   -331350.25   -738256.91   -969078.81    2939.9529    4152.0936    594.93779    7686.9842   -3234.9958    348971.56    1.6448428    1.8100677    5.2980634 
       0.056 -0.0049219181 -0.026615096     5600    301.66026    62.025436    65.713711    85.614077 -0.009652653   0.93922801 0.0053118379 -0.0036835689 -0.020442177 -0.0087627292     0.942297    14803.397   -961528.04   -946724.65    100473.04   -331336.91   -738265.92   -969129.78    2931.5205    4108.4536    561.76818    7601.7423   -3075.5397    348956.26    1.6668464    1.8411851    5.3262513 
      0.0565 -0.0052619343 -0.026932782     5650    300.74905    62.004242    65.744825    85.586135  0.021335812   0.96595277 -0.020559331 -0.0067084422 0.0077599713   0.03864612   0.96872467    14758.681   -961482.33   -946723.65    100633.83   -331423.71    -738262.9   -969052.77    2923.1586    4073.9596    573.32284     7570.441    -3180.292    348888.29    1.6927265     1.875332    5.3640359 
       0.057 -0.0055441071 -0.027289765     5700    300.84122    61.986654     65.77594    85.554737 -0.014837579   0.91765696  0.032868437 0.0043283948 0.0010436212 -0.026638606   0.91078243    14763.204   -961485.44   -946722.24    100692.57      -331572   -738262.15   -969141.59     2956.735    4122.3118    577.09926     7656.146   -3078.1736    348826.37    1.7239847      1.90696    5.4219994 
      0.0575 -0.005731945 -0.027592065     5750     298.4556    61.974945    65.807054    85.528148 -0.0037919273   0.95009705 -0.054122143 -0.0054491663 -0.021139035  0.042328051    0.9834894    14646.134   -961365.23   -946719.09    100822.29    -331563.7    -738258.6   -969000.01    2909.2701    4148.1505    577.36517    7634.7857   -2935.0538    348817.02    1.7546434    1.9366615    5.4722531 
       0.058 -0.0057646779 -0.027653486     5800    301.90968    61.972905    65.838169    85.522745 -0.021575432     0.955874 -0.0006987876 -0.013374135 -0.0019251073 0.0075533999   0.96755167    14815.636    -961501.8   -946686.17    100567.19   -331367.57   -738257.91   -969058.29    2888.9579     4088.601    578.93309     7556.492   -3071.3045    348948.42    1.7733914    1.9594557    5.4932221 
      0.0585 -0.0058075695 -0.027578915     5850    302.69261    61.970231    65.869283    85.529304   0.03186991   0.97746602   0.04485412  0.030583957 0.0012894125 -0.0013494425   0.94066963    14854.058   -961538.05   -946683.99    100401.31   -331264.16    -738256.7   -969119.55    2908.0861    4089.9196    583.49896    7581.5046   -3468.0156    349125.04    1.7865238    1.9781249    5.5169612 
       0.059 -0.0059314922  -0.02748901     5900    302.34289    61.962507    65.900398    85.537212 -0.016778981   0.96986525 -0.037489741 -0.013538173 -0.021897661  0.025788522   0.99915636    14836.896   -961553.32   -946716.42    100400.44   -331294.22   -738240.97   -969134.75    2863.3104    4152.8175    565.30524    7581.4332   -3012.0784     349278.7    1.8020822    1.9967488    5.5354411 
      0.0595 -0.0060076809 -0.027409547     5950    299.36887    61.957758    65.931512    85.544201  0.006378518   0.96611818 0.0046773344  -0.03830193 -0.032296975 0.0090504995   0.96463047    14690.951   -961426.67   -946735.72    100389.72   -331202.45    -738238.5   -969051.23    2886.7398    4173.3974    564.42097    7624.5582   -3214.6526    349445.38    1.8219504    2.0154507    5.5314041 
        0.06 -0.005954434 -0.027517086     6000    301.44568    61.961077    65.962627    85.534743 -0.011966062   0.98829207  0.056047522 0.0012320126 -0.011097691 -0.014746358   0.96857495    14792.867   -961535.87   -946743.01    100324.45   -331147.82   -738254.62   -969077.99    2910.5041    4064.9296    566.68715    7542.1209   -3396.2449    349590.36    1.8514161    2.0398588    5.5503778 
      0.0605 -0.0057841707  -0.02787053     6050    299.43375     61.97169    65.993741    85.503655 -0.020426291    1.0049867 -0.030232583 0.0047192957 -0.0016911144  0.018981977    1.0309122    14694.135   -961426.63    -946732.5    100271.13   -331009.38   -738244.64   -968982.89    2911.1925    4089.7032    555.36129    7556.2571   -3139.4946    349688.03    1.8907338     2.073194    5.5936081 
       0.061 -0.005579822 -0.028351657     6100    298.56627    61.984427    66.024855    85.461338  0.013759562    1.0009645  0.028531608 -0.010116971 -0.0041865583  -0.01405525   0.98038825    14651.565   -961345.65   -946694.09    100051.17   -330736.16    -738238.2   -968923.19    2974.4967    4057.5398    545.50371    7577.5403   -3432.0444    349751.62      1.93395    2.1132837    5.6199851 
      0.0615 -0.0055448176 -0.028974915     6150    299.45216    61.986609     66.05597    85.406519  0.027241748    1.0006329  0.035237048 -0.041133314 -0.0067748405  0.012331759   0.97233815    14695.038   -961339.08   -946644.04    100056.62   -330778.88    -738224.3   -968946.56    2961.4037    4091.5933    554.48283    7607.4799   -3497.3656     349704.3    1.9803887    2.1620237    5.6672678 
       0.062 -0.0057038748 -0.029619176     6200    301.68523    61.976695    66.087084    85.349853 0.0064067672    1.0255237 0.0014267769 -0.0046359428 0.0020629578 0.0021573738    1.0216607    14804.622   -961409.77   -946605.15    100062.12   -330818.52   -738244.11   -969000.51    2957.8045    4058.3954    574.53593    7590.7358   -3399.4812    349580.97    2.0259586    2.2130649    5.7155014 
      0.0625 -0.0059435682 -0.030177837     6250    299.83136    61.961754    66.118199    85.300716 -0.041583723    1.0071512 -0.056763058 -0.015711489 -0.021144838  0.013083554    1.0576341    14713.647   -961311.24   -946597.59     100188.8    -330855.5   -738201.14   -968867.84    2871.1861    4113.1523    572.26997    7556.6084    -2989.734    349459.94    2.0683035    2.2593526    5.7684458 
       0.063 -0.0061586171 -0.030576672     6300    300.21349     61.94835    66.149313    85.265637  0.028619149    1.0212194  0.037634773 -0.011772816 -0.012991854 0.0037320432   0.98861092    14732.399    -961313.2    -946580.8    100307.39   -330968.89   -738220.48   -968881.98    2936.3838    4085.0387    547.35057    7568.7731    -3577.509       349405    2.1052392     2.297095    5.8147825 
      0.0635 -0.0063199665 -0.030718697     6350    300.99336    61.938293    66.180428    85.253145 0.0070424379    1.0110939 -0.022406496 -0.014061515 -0.011493207    0.0210795    1.0202339     14770.67   -961332.23   -946561.56    100231.62   -330935.97   -738216.44   -968920.78    2871.7445    4155.6575    561.14376    7588.5457   -3275.6963    349461.39    2.1331606    2.3228878     5.838427 
       0.064 -0.0064369469 -0.030639345     6400    301.87206    61.931001    66.211542    85.260124 -0.0011180635    1.0163925 -0.068196278 -0.00056333303 -0.0043695373 -0.016461156    1.0530675    14813.791   -961375.77   -946561.98    100117.58   -330849.05   -738214.73   -968946.19    2877.0129    4138.6558    554.74928     7570.418   -3115.6448    349613.15    2.1525093    2.3397643    5.8488029 
      0.0645 -0.0064609256 -0.030458495     6450    301.04738    61.929506    66.242657    85.276031   -0.0270046    1.0485177  0.039619637  -0.02070962  0.012026199 -0.0096466455    1.0447636    14773.321   -961342.55   -946569.23    100020.61   -330618.55   -738227.95   -968825.88     2884.077    4065.8259    533.43071    7483.3336   -3490.8553    349834.26    2.1668367    2.3523089    5.8585763 
       0.065 -0.0064473328 -0.030338661     6500    300.02142    61.930353    66.273771    85.286571  0.036848563    1.0293022  0.023907873 -0.024201986 -0.016831471   0.02476947    1.0012104    14722.974   -961292.18    -946569.2    99780.617   -330449.78   -738220.57   -968889.73    2940.8644    4120.6593    536.03149    7597.5552   -3586.0139    350046.63    2.1811723    2.3672913    5.8791873 
      0.0655 -0.0065885502 -0.030383384     6550    299.05627    61.921551    66.304885    85.282637  0.010472498     1.049269 0.0062411892 -0.027213375 0.0053449648 0.0048342317      1.04206    14675.611   -961240.09   -946564.48    99646.338   -330190.03   -738215.14   -968758.83    2911.4046    4042.6038     564.7369    7518.7453   -3506.8105    350145.04     2.199927    2.3905665    5.9184142 
       0.066 -0.0069620644 -0.030635893     6600    301.19342    61.898269       66.336    85.260428  0.045574079    1.0674619 0.0087402057  -0.01464391 -0.012201092 0.0040966646    1.0413414    14780.487   -961315.92   -946535.44     99454.74   -330097.58   -738221.03   -968863.87     2942.387     4054.805    550.75848    7547.9504   -3690.3568    350086.44    2.2281273    2.4239352    5.9701154 
      0.0665 -0.0075461822 -0.031131742     6650    302.54782     61.86186    66.367114    85.216815  -0.01089175    1.1054374  0.014249367 -0.0021908968 0.0054163149 -0.013146986    1.1042545    14846.952   -961383.75    -946536.8    99752.583   -330376.67   -738220.14   -968844.23    2930.8201    3983.5015    546.15335     7460.475    -3647.652    349865.57    2.2712449    2.4685528    6.0254709 
       0.067 -0.0080186099 -0.031642627     6700    299.35149    61.832412    66.398229    85.171881 -0.064871468    1.0744316 -0.022060518 -0.0037563601 0.0098314802  0.006418907     1.118716    14690.098   -961221.66   -946531.56    100080.18   -330636.58   -738217.37   -968773.77    2898.0076    4102.2928    551.80702    7552.1074   -3248.6211    349678.49    2.3186396    2.5127369    6.0733454 
      0.0675 -0.0080742794 -0.031932351     6750    300.24467    61.828942    66.429343    85.146398 -0.0078850959    1.0609336 -0.032528159 0.0047115163 -0.012947546 -0.0075597222    1.0816934     14733.93   -961240.44   -946506.51    100173.22   -330645.83   -738215.28   -968687.89    2890.2892    4016.4045    540.75308    7447.4468   -3357.2509    349718.06     2.355997    2.5464726    6.0996208 
       0.068 -0.007729726 -0.031933418     6800    299.08892    61.850419    66.460458    85.146304 -0.052053317    1.1010489  0.021062905 0.0050468546 -0.013505343 -0.0036577276    1.1186349    14677.213   -961153.64   -946476.43    100037.21   -330528.59   -738211.85   -968703.22    2923.8269    4084.8423    540.91368    7549.5829   -3520.2187    350003.01    2.3776707    2.5687548    6.1060903 
      0.0685 -0.0071436213 -0.031830332     6850     299.4062    61.886952    66.491572    85.155371 0.0077736444    1.0740744  0.019806598 -0.013776525  0.012403121  0.011310859    1.0610024    14692.783   -961143.55   -946450.77    99613.313    -330132.2   -738199.71   -968718.59     2946.569     4064.621    563.84861    7575.0386   -3624.1621    350411.01    2.3942197    2.5869632    6.1177889 
       0.069 -0.0067387911 -0.031841817     6900    299.79646    61.912186    66.522687    85.154361  0.051949373    1.0859762  0.019334813 -0.012578763 -0.0035200383 0.0044588493    1.0509857    14711.934   -961136.87   -946424.94    99452.804   -329933.42   -738188.84   -968669.45    2895.8604    4067.1757    569.54782    7532.5839   -3807.0906    350713.77    2.4197067    2.6097857    6.1379041 
      0.0695 -0.0067392068 -0.032045007     6950     298.7438     61.91216    66.553801    85.136489  0.030035441    1.0747572 -0.0072269492 -0.0096871441 -0.017051402 -0.0051422268    1.0644219    14660.277   -961058.54   -946398.27    99503.562   -329948.85   -738187.85   -968633.13    2936.7992    4057.8729    579.91751    7574.5895   -3610.7105    350804.02    2.4568879    2.6416604    6.1656842 
        0.07 -0.0070485412 -0.032433241     7000    299.65691    61.892879    66.584915    85.102342 0.0012770672    1.0910633  0.038569418  0.022238817  0.015503364 0.0044947383    1.0726833    14705.086   -961066.27   -946361.18    99554.927   -329922.23   -738193.37   -968560.67    2886.1646    4034.2343    574.00087    7494.3998   -3720.4041    350717.99     2.503269    2.6835138    6.1891953 
      0.0705 -0.0075473411 -0.033013012     7050    301.44931    61.861788     66.61603    85.051348  0.017574581    1.0802882  0.012115381 -0.039417694 0.0051039392 0.0040224907    1.0676982    14793.045   -961110.82   -946317.77    99701.956   -330189.43   -738196.83    -968684.3     2904.325    4102.0995    567.05658    7573.4811   -3651.5441    350495.47     2.559122    2.7371806    6.2345525 
       0.071 -0.0080151702 -0.033612794     7100    299.95651    61.832627    66.647144    84.998595 -0.033182444    1.0932324 -0.024667371 0.00023195136 -0.024557405 -0.019740091    1.1235078    14719.789   -961036.22   -946316.43    100126.45   -330534.25   -738220.93   -968628.74    2877.3589    4144.9179    570.23817     7592.515   -3406.1439    350276.49    2.6160633    2.7935783    6.3015302 
      0.0715 -0.0080885135 -0.033874463     7150    301.01375    61.828055    66.678259    84.975579 -0.052429795     1.108769 -0.042825669  0.011060094   0.00343201 -0.008032216    1.1566843    14771.671    -961081.8   -946310.13    100107.34    -330522.3   -738192.75   -968607.71    2853.3164    4110.3444     562.2458    7525.9066   -3334.2003    350319.22    2.6553316    2.8321335    6.3667951 
       0.072 -0.0077056916 -0.033784937     7200    301.57615    61.851917    66.709373    84.983454  0.014035541    1.0998059  0.014525907 -0.016960447 0.0099618486  -0.02253492    1.0867609    14799.269   -961099.47    -946300.2    99677.856   -330063.46   -738194.63   -968580.23    2922.2594    3995.7541    562.74721    7480.7607   -3712.0399    350650.45    2.6748752    2.8521103     6.381737 
      0.0725 -0.0072194412   -0.0336084     7250     300.2419    61.882226    66.740488    84.998981  0.006632479    1.1015643 -0.0094508023 -0.0059031826 -0.010149234 -0.028400674     1.104345    14733.793   -961027.38   -946293.59    99312.977   -329636.52   -738179.75   -968503.29    2904.1319    4008.4454    563.33389    7475.9112   -3614.5932    351050.04    2.6870932    2.8675315    6.3898281 
       0.073 -0.0069381125 -0.033527664     7300    300.21903    61.899762    66.771602    85.006082  0.032491686    1.1826957 0.0072297248  0.010269982 -5.7442266e-05  0.022210952    1.1638128    14732.671    -960994.8   -946262.13    98991.809   -329323.22   -738163.08   -968494.49    2913.1424    4022.8984    563.64524    7499.6861   -4021.4397    351342.57    2.7028142    2.8856397    6.4054771 
      0.0735 -0.0070601219 -0.033661027     7350    301.81337    61.892157    66.802717    84.994352  0.029714655    1.1726264  0.025676262 -0.0062202576 0.0076239141 -0.009179396    1.1451735    14810.911   -961040.06   -946229.15    98897.121   -329242.15   -738164.14   -968509.17    2896.4431    4024.6014    548.06229    7469.1068   -4039.8628    351414.61    2.7310409    2.9135772    6.4262652 
       0.074 -0.0076283435 -0.034044272     7400    299.62743    61.856738    66.833831    84.960644  0.030120045    1.1399754 0.0022672547 -0.015519277 0.0044399744 -0.019103851     1.124875     14703.64   -960917.65   -946214.01    99277.396   -329567.09   -738179.82   -968469.52    2947.7503    4036.5077    567.60603     7551.864   -3856.7733    351237.74    2.7720762    2.9569225    6.4668682 
      0.0745 -0.0082360967 -0.034483992     7450    298.23934    61.818856    66.864945    84.921968 -0.028028825    1.1440777 -0.010842008 -0.008566628 0.0017065191 0.0063902235    1.1637594    14635.522   -960809.06   -946173.54    99777.363   -330067.42   -738165.65    -968455.7    2942.9653     4116.523    587.15455    7646.6429   -3635.8481    351026.18     2.814022    3.0044679    6.5355871 
       0.075 -0.0084484004 -0.034802728     7500    301.85321    61.805622     66.89606    84.893934 -0.010068969    1.1387203 -0.011755831  0.018227723 0.0059722968 -0.011095865    1.1502742    14812.865   -960970.14   -946157.27     99849.32    -330197.9   -738164.01   -968512.59    2903.4785    4082.7541    556.22019    7542.4528   -3674.3006    350998.44    2.8487263    3.0437084    6.5909422 
      0.0755 -0.0081489498 -0.034931244     7550     297.9077    61.824288    66.927174     84.88263 -0.050839404    1.1185316 -0.016059243 -0.0037197613   0.03097542 -0.026922675    1.1545829    14619.247   -960777.14   -946157.89    99951.388   -330114.11   -738143.53   -968306.24    2919.4713    4061.9773    547.65434    7529.1029   -3459.6033    351220.97    2.8742415    3.0718429    6.6141618 
       0.076 -0.0073903936 -0.034783206     7600     300.5467     61.87157    66.958289    84.895651 -0.025817697    1.1955091 -0.027229029 -0.0077320821 -0.0020312359 -0.00071616086    1.2221121    14748.751   -960874.73   -946125.98    99571.547   -329752.19    -738156.2   -968336.84    2879.6694    4045.6334    536.80306    7462.1059    -3758.409    351706.93     2.887485    3.0832783    6.6264178 
      0.0765 -0.0064789963 -0.034616891     7650    299.88889     61.92838    66.989403    84.910279 0.0026845088    1.1713587  0.034882764 -0.014996979 -0.0046288116 -0.025253401     1.154062     14716.47   -960783.94   -946067.47     98966.05   -329131.11   -738151.03   -968316.08    2931.5026    4069.5241    531.11757    7532.1443   -3977.0573    352254.13    2.9015563     3.092031    6.6462769 
       0.077 -0.0058164191 -0.034803425     7700    300.28206     61.96968    67.020518    84.893873  0.076376891    1.1610701  0.019890984 -0.011798017 -0.0091833512 -0.010513683    1.1144605    14735.764   -960766.39   -946030.62    98874.103   -328946.54   -738156.78   -968229.22    2957.4575    3966.1385    539.23488    7462.8309   -4136.3205    352584.63    2.9340317    3.1213058    6.6802533 
      0.0775 -0.0056553836 -0.035363115     7750     299.5766    61.979717    67.051632    84.844645 0.0081121415    1.1747138  0.042538581 0.0015849208 -0.00065168511 -0.0097072404    1.1499018    14701.145    -960693.9   -945992.75    99122.078   -329179.91   -738143.55   -968201.38    2887.5824    4064.2075    555.69447    7507.4844   -4031.1359    352600.87    2.9875427    3.1746342    6.7030908 
       0.078 -0.0059058815 -0.036155493     7800    299.94696    61.964103    67.082747    84.774951 0.0082048578    1.1580213 0.0011227297 0.0026601358   0.01100432  0.012069449    1.1537299     14719.32   -960660.51   -945941.19     99391.52   -329415.86   -738155.57   -968179.92    2890.2668    4075.6657    553.47429    7519.4069   -3840.2792    352385.93    3.0559324    3.2415254    6.7381541 
      0.0785 -0.0062512529 -0.036932272     7850    297.27581    61.942576    67.113861     84.70663 -0.017698875    1.1401876 -0.020315501  0.020818831 0.0019192069 -0.027432003    1.1607353    14588.238   -960472.96   -945884.72      99594.7   -329596.03   -738144.95   -968146.28    2999.0419    4134.0949    540.18625    7673.3231   -3625.8679    352142.86    3.1242802     3.307229    6.8146683 
       0.079 -0.0063739424 -0.037386061     7900    301.01717    61.934928    67.144975    84.666717 -0.0044371888    1.2118704 -0.014411733 0.0084352626 0.0069039424 -0.0027320045    1.2214805    14771.839   -960606.68   -945834.84    99506.983   -329492.99   -738157.57   -968143.58    2903.6203    4097.3428     535.9349     7536.898   -3924.7354    352096.64    3.1742738    3.3581341    6.8801764 
      0.0795 -0.0063876514 -0.037447353     7950    301.84597    61.934074     67.17609    84.661326  0.018008862    1.1927913 -0.055541383 -0.0090898775 -0.024204305  0.011832226      1.21423     14812.51   -960615.56   -945803.05    99339.537    -329335.9   -738133.89   -968130.25    2918.2162    4042.3835     554.0921    7514.6919    -3800.506    352232.51    3.2039319    3.3898182    6.9082793 
        0.08 -0.0065166125 -0.037159545     8000    301.73299    61.926035    67.207204     84.68664 -0.031167783    1.1842513  0.010780153 -0.014318194 -0.011987153 -0.019623444    1.1959182    14806.966   -960594.33   -945787.36    99202.443   -329208.39   -738155.02   -968160.97    2971.1457    4051.0334    544.46213    7566.6412   -3828.8139    352455.27    3.2159735    3.4033893    6.9313202 
      0.0805 -0.0066950373 -0.036792017     8050      300.912    61.914914    67.238319    84.718966  0.020518596    1.1979545 0.0084436444 -0.019216431 0.0058118086  0.010094553    1.1841593    14766.678   -960560.88    -945794.2    99234.275   -329140.94   -738126.94   -968033.61    2837.5277    4045.8223    589.37576    7472.7258   -4036.2421    352689.69    3.2200564    3.4145126    6.9640131 
       0.081 -0.0067916437 -0.036589008     8100     300.3711    61.908892    67.269433    84.736822 -0.016510875    1.2149495  0.015141613 -0.015470756  0.022340007  0.024146339    1.2175722    14740.134   -960502.97   -945762.84    99120.822   -329026.19   -738146.13    -968051.5    2921.2679    4076.0138    551.24548    7548.5271   -3992.3685    352892.94    3.2304395    3.4346499    7.0026271 
      0.0815 -0.0068128512 -0.036621844     8150    300.08433     61.90757    67.300548    84.733933  0.025102896     1.184832   0.00541612 -0.0025196828 -0.014980545 -0.012259878    1.1701854    14726.061   -960470.52   -945744.46    98924.783   -328785.21   -738115.18   -967975.61    2929.3658    4027.4956    548.22809    7505.0895   -3998.1941    353036.59    3.2570969    3.4656274     7.035789 
       0.082 -0.0068985124 -0.036878359     8200    298.20824     61.90223    67.331662    84.711372 0.0087657063    1.2416448  0.037676265 0.0072120488  -0.01111422 -0.0025671459    1.2189052    14633.995   -960342.45   -945708.45    98948.862   -328709.93   -738118.67   -967879.74    2854.4258    4123.5679    559.30233     7537.296    -4237.476    353075.31     3.301685    3.5066663    7.0579119 
      0.0825 -0.007075101 -0.037352248     8250    298.64801    61.891223    67.362777    84.669691 -0.013850338    1.2143885  0.027781138 -0.024886578  0.008390264  0.024517656    1.2095632    14655.577   -960290.63   -945635.06    99238.569   -328973.92   -738136.41   -967871.76    2938.0477    4080.9631    562.11815     7581.129   -4040.8564    353001.88    3.3621397    3.5549795     7.091639 
       0.083 -0.0071529249 -0.037855221     8300     301.0646    61.886372    67.393891    84.625452 -0.045597972    1.1921505 -0.032258847 -0.011302696 -0.0029962943 -0.013291992    1.2315149    14774.166   -960351.99   -945577.83    99294.328   -329126.95   -738149.32   -967981.94    2933.1396    4127.3876    569.41817    7629.9454   -3665.7412    352952.74    3.4252887    3.6011788    7.1434974 
      0.0835 -0.0070528678 -0.038197306     8350    304.08019    61.892609    67.425005    84.595364  0.044778256    1.2428947 0.0064162461 -0.013249734 -0.0025586144  0.021492314    1.2185438     14922.15   -960489.11   -945566.96    99198.122   -329101.24   -738129.36   -968032.48    2927.3527    4066.7245    549.29436    7543.3715   -4257.2225    353025.72    3.4757479    3.6413753    7.2128872 
       0.084 -0.0068632858 -0.038400699     8400    299.10613    61.904426     67.45612    84.577474 -0.047018468    1.2438429 -0.020929444 -0.021617392  0.015557358 0.0046390633    1.2788741    14678.058   -960267.96   -945589.91     99168.47   -328859.06   -738106.12   -967796.71    2880.1737    4099.9568     548.6154    7528.7459   -3868.3937    353181.36    3.5112985    3.6812189    7.2476692 
      0.0845 -0.0064983103 -0.038577149     8450     298.2907    61.927176    67.487234    84.561955 -0.016991779    1.2368629  0.034776699 -0.0027666182 -0.00015037596 -0.030981853    1.2299691    14638.042   -960212.23   -945574.18    98925.663   -328638.97   -738120.96   -967834.27     2943.234    4121.7978    557.00834    7622.0401   -4127.4704    353409.26    3.5411183    3.7221323     7.268926 
       0.085 -0.0060003686 -0.038960739     8500    301.62639    61.958214    67.518349    84.528216 -0.035757985    1.2780374  0.020238478 -0.034522062 -0.021092696  0.015738495    1.2889062    14801.735   -960343.19   -945541.45    98847.499   -328537.41   -738119.49    -967809.4    2906.9464     4012.097    547.17157     7466.215   -4153.3609    353608.26    3.5841394     3.770399    7.3127618 
      0.0855 -0.0055689162 -0.039497079     8550    298.78789    61.985107    67.549463    84.481042  0.043280513    1.2250055  0.015963886  -0.02244497  0.030233177 -0.0047547585    1.1974232    14662.441   -960178.95   -945516.51    99065.108    -328743.2   -738113.89   -967791.98    2907.4438     4162.869    542.71424    7613.0271   -4224.8538    353727.25    3.6396179    3.8258032    7.3722038 
       0.086 -0.005200835 -0.039935547     8600    300.38146     62.00805    67.580578    84.442477 -0.0038044748    1.1913063  -0.02128875  0.026359847 -0.0037218387 -0.036856694    1.2065208    14740.642   -960215.57   -945474.93    99185.232   -328790.13   -738117.88   -967722.78    2969.1824    4008.5409    529.48753    7507.2108   -3836.5427    353859.57    3.6941944    3.8774049    7.4097134 
      0.0865 -0.0049953498 -0.040177915     8650    302.12413    62.020859    67.611692    84.421159  0.035054719    1.2802439 -0.0051208211 -0.021260477 -0.015588158 0.00093378048    1.2665797    14826.161   -960278.41   -945452.25    99143.135   -328815.91   -738101.86   -967774.63    2901.0608    4043.6357    551.52517    7496.2217     -4310.15    354006.22    3.7422822    3.9186511    7.4412263 
       0.087 -0.0050443743 -0.040289362     8700    299.37467    62.017803    67.642807    84.411357 -0.013214059    1.2459593 -0.053710502 -0.0099936481   0.01444557  0.014524218    1.2805108    14691.236   -960124.01   -945432.78    99067.723   -328647.93    -738100.6   -967680.81    2966.3493    4041.5086      548.934    7556.7919   -3878.7226    354110.56    3.7830546    3.9541735    7.4866699 
      0.0875 -0.0052857927 -0.040304342     8750    297.50791    62.002755    67.673921    84.410039 0.0068484789    1.2414987  0.051091072  0.013743873 -0.017795947 -0.010633073    1.2138988    14599.628   -960005.02   -945405.39    98876.815    -328408.2   -738082.58   -967613.97    2985.0479    4087.2154    536.68007    7608.9433   -4274.8195    354181.95    3.8156616     3.987534    7.5082744 
       0.088 -0.0056389478 -0.040411201     8800     300.5613    61.980742    67.705036    84.400641 0.0094026449    1.2381489 0.00022074861 -0.0031722712 0.0065133157  0.014705357    1.2336896    14749.468    -960125.8   -945376.33    99012.517   -328572.56   -738082.47   -967642.51    2864.2227    4117.3071     535.1827    7516.7125   -4104.8517    354179.55    3.8518329    4.0258627    7.5394551 
      0.0885 -0.0060404816 -0.040538884     8850    299.64087    61.955713     67.73615     84.38941  0.030547511    1.2574371  0.005020426 -0.022236452 0.0068017893 -0.021114503    1.2410432    14704.299   -960041.92   -945337.62     99293.62   -328829.13   -738090.42   -967625.93    2969.5897    4035.3611    579.05381    7584.0046    -4253.656     354152.1    3.8881929    4.0652688    7.5855518 
[...]
      0.9775 -0.033596859  -0.10946688    97750    298.97159    60.238063    123.05764    78.326847 -0.021399968   0.21669142 -0.0050716426 -0.0030648527 -0.012456731 0.0080288357   0.23184815    14671.456   -956407.85    -941736.4    110348.63   -338275.64   -735443.26   -963370.28    2588.8207    3735.3436     638.2622    6962.4265   -625.77451    580617.62    350.01747    374.16172    376.51212 
       0.978 -0.033660282  -0.10946856    97800    301.05476     60.23411    123.08875      78.3267 0.0031526133   0.23606701 0.0065043861 -0.010252413  0.018520696 -0.0052465822   0.23432166    14773.683   -956508.46   -941734.78       110217   -338205.94   -735447.07   -963436.01    2593.8568    3714.0091    619.68347    6927.5494   -808.36914    580725.22      350.447    374.58825     377.1983 
      0.9785 -0.033692288   -0.1094471    97850    302.79737    60.232115    123.11986    78.328587 -0.0034274678   0.22764303 -0.0040634345 -0.0071392671  0.019834519 -0.0054419756    0.2344417    14859.198   -956601.12   -941741.92    110153.79   -338186.26   -735454.75   -963487.22    2602.7203    3685.5457    597.83624    6886.1022   -724.24418    580866.77    350.84039    375.02243    377.83038 
       0.979 -0.033676923  -0.10944578    97900    297.58812    60.233072    123.15098    78.328704 -0.0041973141   0.24232859 -0.002984707 -0.010033675 0.00057684862 -0.0078193321   0.24690889    14603.565   -956360.43   -941756.86    110219.29   -338095.08    -735467.2   -963342.99    2612.5043     3722.562    647.49681    6982.5631   -773.57205    581023.67    351.20561    375.46604    378.31717 
      0.9795 -0.033711333  -0.10945023    97950    300.48095    60.230928    123.18209    78.328312  0.025301913   0.23453593 0.0016182749 -0.011164522 -0.0061686628 0.0087454296   0.22363532    14745.525   -956485.74   -941740.21    109991.78   -337894.66   -735446.11   -963348.99    2563.6256    3682.3751    617.25316    6863.2538   -860.12376    581146.87    351.59741     375.9062     378.7308 
        0.98 -0.034115628  -0.10946419    98000     302.4481    60.205727    123.21321    78.327084  0.026379012   0.24303701 -0.0038113359 0.0014974067 -0.0011410414  -0.01131793   0.23406846    14842.059   -956581.52   -941739.46    109844.41   -337931.42    -735446.9   -963533.91    2566.5662    3747.8253    637.99783    6952.3893   -873.77148    581041.33    352.04333    376.33927    379.03646 
      0.9805 -0.034794663  -0.10949362    98050    299.24642    60.163401    123.24432    78.324496 -0.034559833   0.23740627 -0.0027011298 -0.030205149 0.0031946242 -0.0043278015   0.26294469    14684.942   -956428.59   -941743.65    110182.06   -338108.81   -735445.55   -963372.31    2553.0017    3769.8898    620.82546    6943.7169   -658.42688    580760.29    352.48979    376.76437    379.39091 
       0.981 -0.035216373  -0.10954442    98100    298.47206    60.137115    123.27544    78.320028 -0.0039798556   0.21987762  0.015914344 -0.0040688294 0.0010435075  0.018647943   0.21714202    14646.942    -956383.2   -941736.26    110477.42   -338447.59      -735471   -963441.17    2632.6203    3790.5015    634.84106    7057.9629   -762.60256    580619.97    352.87654    377.18392     379.8443 
      0.9815 -0.035302694  -0.10957825    98150    301.70798    60.131734    123.30655    78.317053 -0.0025734849    0.2146404 -0.021191978 0.0009285856 0.0031664373  -0.02086446   0.23002469    14805.739   -956543.65   -941737.92    110372.88   -338414.06   -735443.87   -963485.06    2547.1236    3769.4003    624.87947    6941.4033   -627.92973     580692.5    353.21031    377.61588    380.21719 
       0.982 -0.035207702  -0.10959037    98200    299.34379    60.137656    123.33767    78.315986 -0.0015434184   0.22642173   0.01238111 -0.0027805253 0.0077796577 -0.014482145   0.22320765    14689.721   -956444.55   -941754.83    110359.55   -338295.54   -735431.53   -963367.52    2593.0627    3719.2972    610.60469    6922.9646   -780.52281    580888.31    353.54889    378.05837     380.6468 
      0.9825 -0.035108913  -0.10961548    98250    300.05688    60.143813    123.36878    78.313777 0.0034098237    0.2324467  -0.01498885 -0.0074036665 -0.0046935305 -0.0013330249   0.23926186    14724.714   -956497.19   -941772.48    110158.33   -338192.54   -735439.36   -963473.57    2593.7887    3729.2173    653.37781    6976.3838   -726.59815    581077.96    353.90761    378.49001    381.21198 
       0.983 -0.035177309  -0.10964435    98300    300.54798     60.13955    123.39989    78.311238 -0.0090520444   0.22783647 -0.015160902 -0.00073391988 0.00034216562 0.0034239453   0.24007861    14748.814   -956533.98   -941785.17    110345.05    -338404.6   -735459.94    -963519.5     2572.019    3774.0846    639.41875    6985.5223    -669.8693    581164.47    354.23183    378.94479    381.53719 
      0.9835 -0.035175952  -0.10938159    98350    300.67493    60.139635    123.43101     78.33435 -0.019181289   0.23263361 -0.022405292 -0.0018384931  0.019093858 0.0011068956   0.25561795    14755.044   -956540.54   -941785.49    110519.99   -338465.24   -735443.35    -963388.6     2561.858    3686.8925    599.31497    6848.0654   -628.49588    581483.38    354.51106    379.36196    381.74175 
       0.984 -0.035083453  -0.10876143    98400     298.7408      60.1454    123.46212    78.388896  0.011720861   0.26374605  0.020217567 1.6706558e-05    0.0221036 -0.015103164   0.25218551     14660.13   -956442.57   -941782.44    110036.96   -337996.91    -735407.9   -963367.84    2615.8296    3686.9427    622.50469     6925.277    -972.7263    582090.77    354.81844    379.68271    382.14457 
      0.9845 -0.035039305  -0.10839232    98450    301.06001    60.148152    123.49324     78.42136 0.0080361875    0.2360011  0.020368609 -0.0025048494  0.012715558 -0.018065463   0.22537013    14773.941   -956550.53   -941776.59    109728.09   -337793.59   -735433.71   -963499.21    2639.5571    3736.4469    572.67486    6948.6788   -869.82778    582505.24    355.20102    380.02947    382.47795 
       0.985 -0.035247473  -0.10849592    98500    300.04496    60.135177    123.52435    78.412248 0.0046466336   0.22143837  0.030057789 0.00016119579 0.0014406963 -0.027864926   0.21088177    14724.129   -956505.65   -941781.53    109870.27   -337813.72   -735439.52   -963382.97     2586.401    3654.1374    636.78066    6877.3191   -842.64426    582458.63    355.61398    380.47068    382.89441 
      0.9855 -0.035748952  -0.10884043    98550    299.27358    60.103918    123.55547    78.381947  0.014724819   0.22997501 -0.0052865544 0.0083479823  0.014523658 -0.0084080084   0.22824222    14686.275   -956460.76   -941774.49    110112.84   -338075.91   -735434.85   -963397.92    2593.7717    3704.8258     638.5602    6937.1576   -787.60844    582077.48     356.0371    380.96274    383.49419 
       0.986 -0.036353696  -0.10912155    98600    299.26201    60.066223    123.58658    78.357222 -0.012564979   0.21875185 -0.021080967 -0.015644585 -0.0046036014 0.0078767258   0.23776849    14685.707    -956449.5   -941763.79    110561.73   -338519.97   -735445.81   -963404.05    2569.4426    3739.5994    645.51484    6954.5569   -608.95108    581675.37    356.46346    381.46419    383.85911 
      0.9865 -0.036763769  -0.10911804    98650    300.37658    60.040662     123.6177     78.35753 -0.0083095728   0.20035229 -0.0081482207 -0.0093722769 -0.014589381 0.0021851337   0.21076652    14740.403   -956484.61    -941744.2    110745.04   -338745.62   -735426.29   -963426.87    2592.0169    3711.4443    638.80665    6942.2678   -604.96586    581576.51    356.84386    381.91151    384.35081 
       0.987  -0.03684994  -0.10879867    98700    300.67295    60.035291    123.64881     78.38562 -0.021860733   0.22186812 -0.010055471  -0.01061076  0.013731651 -0.0037146633   0.24002223    14754.947   -956497.09   -941742.14     110800.8   -338787.28   -735411.25   -963397.73    2544.6569    3695.3156     660.6701    6900.6427   -624.89322    581879.37    357.16079    382.30444    384.80075 
      0.9875 -0.036537733  -0.10835232    98750    300.79337    60.054752    123.67992    78.424879 0.00042695473   0.22479759  0.010078677 0.0017076672  0.017050766 -0.0016527577   0.22171807    14760.856    -956499.5   -941738.65     110261.2   -338328.72   -735389.01   -963456.54    2593.0439    3741.4528    622.53639    6957.0331   -774.08742    582506.06    357.40138    382.69275    385.23468 
       0.988 -0.036322563  -0.10798863    98800    302.05882    60.068164    123.71104    78.456867 -0.0018613317   0.21478596  0.025963891  0.006275853 0.0063050266 -0.0051963682   0.20494013    14822.956   -956559.59   -941736.63    109866.85   -337923.25   -735411.13   -963467.53    2575.5914    3696.1887    636.15681    6907.9369   -785.88211    583020.43    357.62634    383.08984     385.8324 
      0.9885  -0.03648907  -0.10787049    98850    298.81405    60.057785    123.74215    78.467258  0.048019136   0.22661386  0.014117318 -0.0025596986 -0.0076389924 -0.015334895   0.20000073    14663.725   -956392.49   -941728.76    110171.29   -338060.81   -735417.78    -963307.3    2562.7399    3748.0451    604.02963    6914.8145   -949.91469    583143.53    357.94722    383.47551    386.43798 
       0.989 -0.036879628  -0.10790125    98900    300.47832    60.033441    123.77327    78.464552 -0.037684061   0.22767341 -0.040048752 -0.0093943894 -0.00063817485 0.0055307189   0.26721793    14745.396   -956457.03   -941711.64    110566.93   -338494.97   -735424.29   -963352.34    2580.0198    3688.3853    626.90311    6895.3082   -493.26622    583033.61    358.35359    383.85039    386.77722 
      0.9895 -0.037020036  -0.10782732    98950      301.555    60.024689    123.80438    78.471056 -0.012072709   0.20302058  0.011884117 0.0020130481 0.0025410561 0.0060714651   0.20451948    14798.231   -956506.78   -941708.55    110891.81   -338908.77   -735423.41   -963440.37    2609.2806    3723.7981    600.50653    6933.5852   -667.26536    583143.49    358.73672    384.21977    386.85605 
        0.99 -0.036823679  -0.10748647    99000    299.06022    60.036928     123.8355    78.501035 -0.0053329613   0.17780971 0.0045537522 -0.0054283198 -0.0037101478 -0.014912203   0.18062426    14675.805   -956392.67   -941716.86     110642.4   -338547.11   -735430.61   -963335.32    2608.7332    3699.7979    634.12266    6942.6538   -582.38507    583631.86    359.03961    384.55225    386.99002 
      0.9905 -0.036615735  -0.10713013    99050    299.21711     60.04989    123.86661    78.532377  0.018672963   0.23515417 0.0014008699 -0.0018533629  0.011594193 -0.014210804   0.22786167    14683.504   -956397.26   -941713.76    110016.99   -338052.54   -735398.85   -963434.39    2688.9553    3701.9672    646.21061    7037.1331   -839.63484    584137.67    359.34347     384.8583    387.37233 
       0.991 -0.036689337  -0.10710798    99100    298.39817    60.045302    123.89773    78.534325  0.010619488   0.24514266  0.023236395 0.0014374521 -0.0055639832 -0.00064350457   0.22869557    14643.316   -956362.86   -941719.54    109888.11   -337774.68   -735392.67   -963279.24    2604.6008    3693.1014    618.67817    6916.3803   -917.83384    584254.25    359.70005    385.20114    387.80026 
      0.9915 -0.037012816  -0.10747715    99150    299.45805    60.025139    123.92884    78.501855  0.010612839   0.22774434  0.019202706  0.011754221 -0.0025020319 0.00090720238    0.2139871    14695.327   -956398.34   -941703.02     110094.7   -337963.26   -735403.75   -963272.31    2587.0799    3682.9336    603.95394    6873.9674   -847.30615    583963.19     360.0606    385.61167    388.23966 
       0.992 -0.037446736  -0.10801571    99200    300.91021    59.998092    123.95995    78.454485 -0.017623323   0.22262542 -0.016421044 -0.013527617   0.01406502 0.0030117842   0.24207795     14766.59   -956445.29    -941678.7    110311.61   -338263.18    -735437.7   -963389.27     2612.488    3735.7318    595.75635    6943.9762   -620.38344    583494.31    360.36714    386.09099     388.5134 
      0.9925 -0.037736307  -0.10847275    99250    300.77192    59.980042    123.99107    78.414287 -0.008658431   0.22325714 0.0049840354 -0.018832756   0.01053902 -0.00017523266   0.22848276    14759.803   -956439.12   -941679.32    110425.32   -338354.94   -735430.01   -963359.63     2601.736    3695.2563     623.5163    6920.5085   -722.37108    583166.23    360.65013    386.54979    388.85728 
       0.993 -0.037755813  -0.10883592    99300    301.52553    59.978826    124.02218    78.382344  0.013125642    0.2259711 0.0016423668 0.00026143598 0.0023514005 -0.00067399458   0.21885468    14796.785   -956488.12   -941691.34    110157.13   -338209.29   -735450.62   -963502.78    2621.4349    3740.3853    652.84044    7014.6607   -791.97009    583063.13    361.00021    386.91608    389.32297 
      0.9935 -0.037759378   -0.1091905    99350    300.38813    59.978604     124.0533    78.351157 0.0036905932   0.23434729 -0.015545623 0.0067824605 0.0017132111 0.0058075282    0.2413659    14740.969   -956469.84   -941728.87    110037.69   -337969.64   -735454.78   -963386.74    2589.7437    3685.1355    642.01518    6916.8944   -731.94261     582975.2    361.40006    387.25392    389.78517 
       0.994 -0.038029509  -0.10947546    99400    299.68134    59.961766    124.08441    78.326093 -0.0056780712   0.24482254 -0.013932996 0.0098433528 -0.018013235 -0.0075868708    0.2575332    14706.285   -956459.99   -941753.71    110200.89   -338121.38   -735416.26   -963336.75    2581.4506    3681.7611    613.55135    6876.7631   -740.88814    582771.24    361.72596     387.6104    390.24567 
      0.9945 -0.038454488  -0.10956244    99450     299.3053    59.935276    124.11553    78.318442   0.02119605   0.22133115 -0.0036050979 -0.010610504 -0.010461114 -0.015175416   0.21677101    14687.832   -956431.01   -941743.18     110446.3   -338442.38   -735398.43    -963394.5    2617.8125    3713.6538    632.03105    6963.4973   -785.99261    582602.93    361.92898    387.96177    390.64191 
       0.995 -0.038906095  -0.10931713    99500    299.78738    59.907126    124.14664    78.340019 0.0029090067   0.24773405 -0.0009339092 0.0027703898 -0.0050898034 -0.011525298   0.24777844    14711.489   -956442.15   -941730.66    110139.69   -338085.72    -735391.5   -963337.53    2577.7397    3690.3653     627.2708    6895.3758   -821.47923    582635.76    362.09354    388.27497    390.81887 
      0.9955 -0.039362561  -0.10907248    99550    298.17273    59.878674    124.17776    78.361537 -0.00027487778   0.26702785 0.0083094511  -0.00953254 0.0016188787 0.0066438852   0.26389907    14632.253   -956351.38   -941719.13    109803.97   -337798.32   -735372.79   -963367.13    2601.8407    3764.3501     649.5617    7015.7524   -904.88501       582665    362.35317    388.56773    391.10621 
       0.996 -0.039690266  -0.10923336    99600    302.30598    59.858247    124.20887    78.347387 -0.020458687   0.25837676  0.014243883 0.0063922887 -0.011985693 0.0073077502   0.26455799    14835.085   -956538.46   -941703.38    109883.95   -337874.76   -735434.25   -963425.05    2575.6411    3676.9249    634.02688    6886.5928   -829.54834    582506.97    362.69653    388.92131    391.54774 
      0.9965 -0.039809177  -0.10962815    99650    300.23502    59.850835    124.23998    78.312663 -0.004706723     0.215703  0.034108856 0.0035740859 -0.0062480056 0.0022541077   0.20421176    14733.456   -956437.96   -941704.51    110181.36   -338134.17   -735458.43   -963411.24    2612.2424    3739.3691    621.66957     6973.281   -806.33319    582322.54    363.00382    389.36159      391.931 
       0.997 -0.039788547  -0.11005057    99700    302.05768    59.852121     124.2711    78.275509 -0.00026574392   0.21572983 -0.021637059 -0.013336547 -0.019619003 -0.0022109242   0.23114909    14822.899   -956538.36   -941715.46    110341.37   -338318.14   -735479.82   -963456.59    2600.6784    3687.1387     630.4161    6918.2332   -637.64135    582204.54    363.27434     389.8126    392.38529 
      0.9975 -0.039804079  -0.11029056    99750    302.31235    59.851153    124.30221    78.254401   0.01445641    0.2481284  -0.02494948 0.0061990757 0.0047986113 -0.0021389165   0.25604993    14835.397   -956593.69    -941758.3    110110.37   -338198.67   -735437.83   -963526.13    2641.6304    3687.9231    602.87862    6932.4321   -781.75945    582183.85     363.5953    390.18347    392.93881 
       0.998 -0.039941503  -0.11029946    99800    297.26559    59.842587    124.33333    78.253618 0.0054976017   0.24971346 0.0065237251 0.0026791824 -0.010469136 0.0041176775   0.24452617    14587.737   -956395.73   -941807.99    109916.88   -337839.58    -735434.9    -963357.6     2618.822    3686.2146    656.83815    6961.8748    -861.0405    582240.41    363.98724    390.50647    393.31651 
      0.9985 -0.040282835  -0.11023007    99850     299.2483    59.821311    124.36444    78.259722  0.006199101   0.22041744  0.010208673 -0.010161679 -0.0076698351 -0.0086734554   0.21391259    14685.034   -956492.16   -941807.12    110027.46   -337926.75   -735453.02   -963352.32    2574.5445    3668.8179    616.79596    6860.1584   -779.09439    582224.47    364.36657    390.85059    393.73079 
       0.999 -0.040710373   -0.1101452    99900    300.88412    59.794662    124.39556    78.267186 -0.018973606    0.2431339 -0.023313001 -0.0071443416 -0.0019447225 0.00078588516   0.26461838    14765.309   -956548.01   -941782.71    110225.44    -338250.1   -735451.27   -963475.92    2580.6905    3742.1893    605.02954    6927.9094   -660.73622    582166.22    364.62508    391.24934    394.14782 
      0.9995 -0.040950016  -0.10996551    99950     297.9724    59.779724    124.42667    78.282991 -0.0017170288   0.22540898 0.0047382339 0.0077874839  0.017448878  0.011738751   0.22731136    14622.422   -956386.44   -941764.01    110503.32   -338415.58   -735409.63   -963321.88     2612.371     3700.772    622.30542    6935.4484   -751.47687    582283.93    364.81109    391.63159    394.37649 
           1 -0.041013288  -0.10970981   100000     300.3103     59.77578    124.45779    78.305481 0.0053385754   0.22125503 -0.0011424873 -0.021144822 -0.0082030292 -0.0052624715   0.22290704     14737.15   -956479.36   -941742.21    110436.82   -338377.06   -735440.44   -963380.68    2579.9815    3695.0359    626.30796    6901.3254   -741.67651    582558.42    365.09049    391.91435    394.58782 
Loop time of 9284.1 on 8 procs for 100000 steps with 16464 atoms

Performance: 0.931 ns/day, 25.789 hours/ns, 10.771 timesteps/s
156.4% CPU use with 1 MPI tasks x 8 OpenMP threads

MPI task timing breakdown:
Section |  min time  |  avg time  |  max time  |%varavg| %total
---------------------------------------------------------------
Pair    | 3538.7     | 3538.7     | 3538.7     |   0.0 | 38.12
Bond    | 222.18     | 222.18     | 222.18     |   0.0 |  2.39
Kspace  | 1847       | 1847       | 1847       |   0.0 | 19.89
Neigh   | 274.84     | 274.84     | 274.84     |   0.0 |  2.96
Comm    | 19.483     | 19.483     | 19.483     |   0.0 |  0.21
Output  | 6.5251     | 6.5251     | 6.5251     |   0.0 |  0.07
Modify  | 3363       | 3363       | 3363       |   0.0 | 36.22
Other   |            | 12.33      |            |       |  0.13

Nlocal:        16464.0 ave       16464 max       16464 min
Histogram: 1 0 0 0 0 0 0 0 0 0
Nghost:        19252.0 ave       19252 max       19252 min
Histogram: 1 0 0 0 0 0 0 0 0 0
Neighs:    1.31314e+06 ave 1.31314e+06 max 1.31314e+06 min
Histogram: 1 0 0 0 0 0 0 0 0 0
FullNghs:  3.37275e+06 ave 3.37275e+06 max 3.37275e+06 min
Histogram: 1 0 0 0 0 0 0 0 0 0

Total # of neighbors = 3372746
Ave neighs/atom = 204.85581
Ave special neighs/atom = 4.6666667
Neighbor list builds = 4096
Dangerous builds = 0

unfix 3
unfix 4

print "all done!"
all done!
Total wall time: 2:34:57
