LAMMPS (29 Oct 2020)
  using 6 OpenMP thread(s) per MPI task
#Initialization----------
units       real
boundary p p p
atom_style  full
pair_style   hybrid lj/charmm/coul/long 9.9 10. buck/coul/long 9.9 10.
bond_style      harmonic
angle_style     harmonic
special_bonds   amber
dihedral_style  charmm
kspace_style pppm 1.0e-4
kspace_modify diff ad

#Reading data file(with bonded interactions) and potential file(non bonded)------------
read_data    NPT777_aniso.data
Reading data file ...
  orthogonal box = (-0.89082456 0.35542204 1.9517850) to (61.441406 62.584315 89.906793)
  1 by 1 by 1 MPI processor grid
  reading atoms ...
  16464 atoms
  reading velocities ...
  16464 velocities
  scanning bonds ...
  4 = max bonds/atom
  scanning angles ...
  6 = max angles/atom
  scanning dihedrals ...
  9 = max dihedrals/atom
  reading bonds ...
  9604 bonds
  reading angles ...
  16464 angles
  reading dihedrals ...
  12348 dihedrals
Finding 1-2 1-3 1-4 neighbors ...
  special bond factors lj:    0.0      0.0      0.5     
  special bond factors coul:  0.0      0.0      0.8333333333333334
     4 = max # of 1-2 neighbors
     3 = max # of 1-3 neighbors
     6 = max # of 1-4 neighbors
     7 = max # of special neighbors
  special bonds CPU = 0.008 seconds
  read_data CPU = 0.149 seconds
#read_restart restart.txt
include dlpoly2lammps.nonbonding
 pair_coeff           1           3 lj/charmm/coul/long   1.4000000000000000E-002   2.2645400000000002
 pair_coeff           2           3 lj/charmm/coul/long   5.7400000000000000E-002   2.7500000000000000
 pair_coeff           3           3 lj/charmm/coul/long   1.5699999999999999E-002   1.0690999999999999
 pair_coeff           3           4 lj/charmm/coul/long   5.1700000000000003E-002   2.1595000000000000
 pair_coeff           4           4 lj/charmm/coul/long  0.17000000000000001        3.2500000000000000
 pair_coeff           3           5 lj/charmm/coul/long   4.1399999999999999E-002   2.2343999999999999
 pair_coeff           4           5 lj/charmm/coul/long  0.13639999999999999        3.3248000000000002
 pair_coeff           5           5 lj/charmm/coul/long  0.10940000000000000        3.3997000000000002
 pair_coeff           1           6 lj/charmm/coul/long   1.4000000000000000E-002   2.7099899999999999
 pair_coeff           2           6 lj/charmm/coul/long   5.7400000000000000E-002   3.1000000000000001
 pair_coeff           3           6 lj/charmm/coul/long   1.5699999999999999E-002   1.5145000000000000
 pair_coeff           4           6 lj/charmm/coul/long   5.1700000000000003E-002   2.6050000000000000
 pair_coeff           5           6 lj/charmm/coul/long   4.1399999999999999E-002   2.6798000000000002
 pair_coeff           6           6 lj/charmm/coul/long   1.5699999999999999E-002   1.9600000000000000
 pair_coeff           1           1 buck/coul/long   70359906.629702002       0.13125800000000001        0.0000000000000000
 pair_coeff           1           2 buck/coul/long   103496.13301000001       0.32173700000000000        0.0000000000000000
 pair_coeff           2           2 buck/coul/long   22793.338582000000       0.48221700000000001        696.94954199999995
 pair_coeff           1           4 buck/coul/long   32690390.937995002       0.15094700000000000        0.0000000000000000
 pair_coeff           2           4 buck/coul/long   112936.71421300001       0.34242600000000001        0.0000000000000000
 pair_coeff           1           5 buck/coul/long   32690390.937995002       0.15094700000000000        0.0000000000000000
 pair_coeff           2           5 buck/coul/long   112936.71421300001       0.34242600000000001        0.0000000000000000

group lead type 1
1372 atoms in group lead
group iodine type 2
4116 atoms in group iodine
group methylammonium molecule <> 5489 6860
10976 atoms in group methylammonium


timestep 1

############ ---------- Define Settings ------------------------------------------#####################
compute csym all centro/atom fcc
compute eng all pe/atom
compute stress all stress/atom NULL virial
compute eatoms all reduce sum c_eng
compute stress1 all reduce sum c_stress[1]
compute stress2 all reduce sum c_stress[2]
compute stress3 all reduce sum c_stress[3]
compute stress4 all reduce sum c_stress[4]
compute stress5 all reduce sum c_stress[5]
compute stress6 all reduce sum c_stress[6]

reset_timestep 0
timestep 1

##### Store cell length for strain calculations
variable tmpx equal "lx"
variable L0x equal ${tmpx}
variable L0x equal 62.3322301271326
print "Initial Length in x, L0x: ${L0x}"
Initial Length in x, L0x: 62.3322301271326

variable tmpy equal "ly"
variable L0y equal ${tmpy}
variable L0y equal 62.2288929287961
print "Initial Length in y, L0y: ${L0y}"
Initial Length in y, L0y: 62.2288929287961

variable tmpz equal "lz"
variable L0z equal ${tmpz}
variable L0z equal 87.9550080823369
print "Initial Length in z, L0z: ${L0z}"
Initial Length in z, L0z: 87.9550080823369

thermo 50

#######------Deformation------######
fix 3 all npt temp 300 300 100 x 1 1 1000 y 1 1 1000 drag 1
variable srate equal 1.0e10
variable srate1 equal "v_srate / 1.0e15"
fix 4 all deform 1 z erate ${srate1} units box remap x
fix 4 all deform 1 z erate 1e-05 units box remap x

compute msdpb lead msd
compute msdi iodine msd
compute msdma methylammonium msd

compute myRDF all rdf 20 1 1 2 2 1 2 1 4 1 5 2 4 2 5 4 5
fix 2 all ave/time 1 1000 1000 c_myRDF[*] file stress.rdf mode vector

########-----output strain and stress info to file----#######
variable strainx equal "(lx - v_L0x)/v_L0x"
variable strainy equal "(ly - v_L0y)/v_L0y"
variable strainz equal "(lz - v_L0z)/v_L0z"
variable p1 equal "-pxx *1.01325/10000"
variable p2 equal "-pyy *1.01325/10000"
variable p3 equal "-pzz *1.01325/10000"
variable p4 equal "-pxy *1.01325/10000"
variable p5 equal "-pyz *1.01325/10000"
variable p6 equal "-pxz *1.01325/10000"
variable vonmises equal "sqrt(((v_p1-v_p2)^2+(v_p2-v_p3)^2+(v_p1-v_p3)^2+6*(v_p4^2+v_p5^2+v_p6^2))/2)"


dump 6 all custom 5000 deform.dump id element type mass xs ys zs c_csym c_eng q fx fy fz c_stress[1] c_stress[2] c_stress[3] c_stress[4] c_stress[5] c_stress[6]
dump_modify 6 element Pb I H N C H
thermo_style custom v_strainz v_strainx v_strainy step temp lx ly lz v_p1 v_p2 v_p3 v_p4 v_p5 v_p6 v_vonmises ke pe etotal evdwl ecoul elong epair ebond eangle edihed emol press vol c_msdpb[4] c_msdi[4] c_msdma[4]

run	100000
PPPM initialization ...
  using 12-bit tables for long-range coulomb (../kspace.cpp:328)
  G vector (1/distance) = 0.27077963
  grid = 40 40 60
  stencil order = 5
  estimated absolute RMS force accuracy = 0.037815386
  estimated relative force accuracy = 0.00011387991
  using double precision KISS FFT
  3d grid and FFT values/proc = 148003 96000
Neighbor list info ...
  update every 1 steps, delay 10 steps, check yes
  max neighbors/atom: 2000, page size: 100000
  master list distance cutoff = 12
  ghost atom cutoff = 12
  binsize = 6, bins = 11 11 15
  5 neighbor lists, perpetual/occasional/extra = 3 2 0
  (1) pair lj/charmm/coul/long, perpetual, skip from (5)
      attributes: half, newton on
      pair build: skip
      stencil: none
      bin: none
  (2) pair buck/coul/long, perpetual, skip from (5)
      attributes: half, newton on
      pair build: skip
      stencil: none
      bin: none
  (3) compute centro/atom, occasional
      attributes: full, newton on
      pair build: full/bin
      stencil: full/bin/3d
      bin: standard
  (4) compute rdf, occasional, copy from (5)
      attributes: half, newton on
      pair build: copy
      stencil: none
      bin: none
  (5) neighbor class addition, perpetual
      attributes: half, newton on
      pair build: half/bin/newton
      stencil: half/bin/3d/newton
      bin: standard
WARNING: Inconsistent image flags (../domain.cpp:812)
Per MPI rank memory allocation (min/avg/max) = 209.8 | 209.8 | 209.8 Mbytes
v_strainz v_strainx v_strainy Step Temp Lx Ly Lz v_p1 v_p2 v_p3 v_p4 v_p5 v_p6 v_vonmises KinEng PotEng TotEng E_vdwl E_coul E_long E_pair E_bond E_angle E_dihed E_mol Press Volume c_msdpb[4] c_msdi[4] c_msdma[4] 
-4.8470877e-16 -1.1399283e-16 4.5672851e-16        0    300.18499     62.33223    62.228893    87.955008 -0.017292815 -0.039250607 -0.017757825 -0.0035435147 -0.021960714  0.017474288  0.053597489    14731.001   -962944.29   -948213.29    106265.56   -338438.27   -738443.17   -970615.88    2933.6517    4177.6395    560.30762    7671.5989     244.4321    341165.66            0            0            0 
      0.0005 3.2032511e-05 1.125475e-05       50    299.42266    62.334227    62.229593    87.998986 -0.023219528  0.019281511  0.017649354 -0.0030837264 -0.0023085298 0.0013515451  0.042304018    14693.591   -962914.97   -948221.38    106098.35   -338106.59   -738431.57   -970439.82    2973.5507    3993.6143    557.68418    7524.8491   -45.106792    341351.02 0.0093124242  0.015364697   0.25247407 
       0.001 0.00014006051 -8.0872779e-05      100    299.28186     62.34096     62.22386    88.042963 0.0038004703 0.0049558016  0.042925493 -0.010329565 -0.010822175 -0.018432139  0.056370109    14686.682   -962910.98    -948224.3    105761.45   -337824.73   -738437.62   -970500.91    2902.4768    4131.8414    555.60348    7589.9216   -170.01979    341527.04  0.033420013   0.05388545   0.63179504 
      0.0015 0.00011091524 -0.00034071747      150    298.66257    62.339144     62.20769    88.086941  0.042738733  0.023449487  0.025752709 -0.0078731893 -0.031482715  0.018031379  0.066841526    14656.291    -962863.3   -948207.01    105691.18    -337726.4   -738422.96   -970458.17    2913.0008    4149.2159    532.65316    7594.8699   -302.46214    341598.88  0.064311463   0.10013974    0.9767547 
       0.002 -0.00015629763 -0.00076047019      200    302.22621    62.322488     62.18157    88.130918    0.0380846 -0.00099713198  0.020254197 -0.016826719 -0.0020511455  0.014292123  0.051218096     14831.17   -963033.78   -948202.61    105778.47   -337881.31   -738428.37   -970531.21    2920.9138    4036.0068    540.51027    7497.4308   -188.63941    341534.64  0.094438866   0.14090798    1.1630349 
      0.0025 -0.0006668661 -0.0012469184      250    301.19294    62.290663    62.151299    88.174896 -0.0047913105  0.013341541  0.059655944 -0.0013804957   0.01914458 -0.021627897  0.076303318    14780.464   -962998.53   -948218.06    105822.43   -337905.34   -738436.76   -970519.67    2905.8871    4065.0138    550.24506     7521.146   -224.38087    341364.31   0.11873027   0.17119515    1.3025954 
       0.003 -0.0013035141 -0.0016104685      300    299.81752    62.250979    62.128675    88.218873 -0.015840248 -0.034237044 -0.0014828198 -0.013600057 -0.021425746 -0.0072795722  0.053849395    14712.968   -962946.72   -948233.76     106037.9   -338081.57   -738437.27   -970480.94    2850.3307    4139.4371    544.44288    7534.2106    169.61958    341192.74   0.13582929   0.19336314    1.3987184 
      0.0035 -0.0018255725 -0.0016623537      350    298.80262    62.218438    62.125446    88.262851 0.0044569508 -0.035672744   0.03646826  0.021537621  0.015775853  -0.01378188  0.081411184    14663.164   -962898.08   -948234.91    106225.98   -338285.88   -738436.21   -970496.11    2881.8948    4156.0638    560.07237     7598.031   -17.279271    341166.66   0.14618057   0.21133601    1.4785043 
       0.004 -0.0020319632 -0.001354273      400    303.23035    62.205573    62.144618    88.306828 -0.037907091 -0.0061335627   0.04994907 -0.0070608605  0.024745185  0.012885119  0.091768081    14880.446   -963120.16   -948239.71    105953.97   -338060.68   -738444.37   -970551.08    2842.7186    4051.0612    537.14015      7430.92   -19.437179    341371.38   0.15134084    0.2276602    1.5430635 
      0.0045 -0.002030669 -0.00094243064      450    300.17992    62.205654    62.170247    88.350806  0.010167517   0.02914248  0.049128688 -0.0053148692 -0.0064656982 0.0086601624   0.03967228    14730.752   -962983.58   -948252.83    105607.72   -337805.91   -738428.46   -970626.65     2926.828    4176.0591    540.18205    7643.0691   -290.94065    341682.68   0.15525597   0.24456664    1.6151628 
       0.005 -0.0021805374 -0.00060148312      500    300.39987    62.196312    62.191463    88.394783  0.031422562  0.014919545  0.091412036 0.0065268842 0.0027533609  0.017507202   0.07701392    14741.545   -963020.04    -948278.5    105366.57   -337436.32   -738417.93   -970487.68    2920.1642    4019.4271    528.04444    7467.6358   -453.17589    341918.06   0.16099169   0.26188239    1.7183794 
      0.0055 -0.0025707322 -0.00057075172      550    299.58393    62.171991    62.193376    88.438761 -0.015860612  0.050256443  0.075302687  0.019962126  0.015965878 0.0026319411  0.092928638    14701.505   -962978.84   -948277.33    105372.46   -337421.84   -738422.53   -970471.91    2930.1498    4013.4319    549.49164    7493.0733   -360.88006    341964.92   0.16862792   0.27840064    1.8469714 
       0.006 -0.0029524329 -0.0010317698      600    297.95555    62.148198    62.164687    88.482738 -0.0027495334  0.056930534  0.065305551 -0.026437437 -0.013465416  0.013653618  0.085625366    14621.595   -962861.28   -948239.68    105493.02   -337436.14      -738420   -970363.11    2906.7477    4048.9738    546.11309    7501.8347   -393.08019    341846.27   0.17763744   0.29355426    1.9726142 
      0.0065 -0.0032166116 -0.0019128267      650    300.29521    62.131732     62.10986    88.526716 -0.0087346595 -0.0026616904  0.079139528  0.016671295 -0.0044429466 0.00078214219   0.09011075     14736.41   -962932.32   -948195.91    105457.01   -337544.93    -738430.4   -970518.31    2884.4866    4157.7256    543.77812    7585.9903   -222.85773    341623.99   0.18753093   0.30671681    2.0830648 
       0.007 -0.003450984 -0.0028515334      700    301.99377    62.117123    62.051445    88.570693 -3.8220368e-05 -0.014236992  0.097550753  0.019521144 -0.0088617343 0.0089526685   0.11282785    14819.763   -963000.17   -948180.41    105763.41   -337835.36   -738433.18   -970505.14    2880.9758    4073.8962    550.09651    7504.9685   -273.95523    341391.95    0.1984082   0.31859223      2.17947 
      0.0075 -0.0035834258 -0.0033654045      750    300.56296    62.108867    62.019468    88.614671 -0.013264357 -0.044475433  0.047115617 -0.032008922  0.016016905 -0.015593966   0.10524851    14749.549   -962940.43   -948190.88    106010.71   -338072.95   -738429.07   -970491.31    2895.3027    4111.6017    543.97629    7550.8807    34.950812    341340.07   0.20810638   0.32799936     2.258612 
       0.008 -0.0035276159 -0.0033484756      800    299.37126    62.112346    62.020521    88.658648 0.0032481448 -0.019086791   0.08638252   0.01690022 -0.0036677522  0.010215162   0.10235835    14691.068    -962892.4   -948201.33    105730.42   -337759.22   -738400.85   -970429.65    2897.5751      4096.14    543.53879    7537.2538    -232.0713     341534.4   0.21384656   0.33286732    2.3165404 
      0.0085 -0.0034157653 -0.0030533538      850     297.8339    62.119318    62.038886    88.702626 -0.035253095 -0.016603482   0.12588835 0.0025593139 -0.018559483   0.01505136   0.15824599    14615.625   -962793.13   -948177.51    105421.09   -337449.15   -738421.72   -970449.78    2945.7066     4136.812    574.13008    7656.6486   -243.54561    341843.36   0.21587602   0.33482955    2.3790984 
       0.009 -0.0033845105 -0.0027244381      900    300.41212    62.121266    62.059354    88.746603   0.03869338  0.042783667    0.1541985 -0.024749938 -0.0018546322 -0.013690993   0.12367717    14742.147   -962897.57   -948155.42    105168.48   -337208.38   -738431.55   -970471.46    2931.7378    4105.7678    536.38047    7573.8861   -775.31229    342136.41   0.21665391   0.33669771    2.4420242 
      0.0095 -0.003478052 -0.0026532688      950    300.32628    62.115435    62.063783    88.790581 0.0021580109 0.0010869593   0.12347999 0.0079714558 0.0046710189  0.031766911   0.13466109    14737.934   -962882.46   -948144.52    104960.65   -336947.88   -738414.51   -970401.74    2891.3183    4080.8437    547.12037    7519.2824   -416.89271    342298.25   0.21879426   0.33901102    2.5114624 
        0.01 -0.0037446234 -0.0029151196     1000      297.214    62.098819    62.047488    88.834558  0.023075957  0.019090946   0.13614776  0.021103152 -0.032265495  0.019695407   0.13738504    14585.205    -962709.6    -948124.4     105179.2   -337195.54   -738414.42   -970430.77    2948.0536    4206.5234    566.58916    7721.1662   -586.60964    342286.28   0.22424788   0.34188748    2.5741556 
      0.0105 -0.0040357263 -0.003295051     1050    301.65919    62.080674    62.023846    88.878536 -0.0087333733  0.030033467   0.12435475 0.0081568333 -0.0031060568  0.010951264   0.12101341    14803.344   -962909.82   -948106.48    105406.63   -337351.58   -738415.83   -970360.79    2898.3447    4011.4774    541.14154    7450.9636   -479.16719    342225.22   0.23250601   0.34582094    2.6344107 
       0.011 -0.0042572331 -0.0035669502     1100    301.63339    62.066867    62.006926    88.922513 -0.027212833 -0.017478319   0.14085864 -0.0057560089  0.012461981 0.0010056175    0.1651515    14802.078   -962893.77   -948091.69    105240.71   -337293.61   -738423.68   -970476.59    2937.1104     4099.405    546.30256    7582.8179   -316.36643    342225.02   0.24090741   0.35142388    2.6974125 
      0.0115 -0.0044459899 -0.0037930288     1150    302.07994    62.055102    61.992857    88.966491 0.0035035502 -0.0046379895   0.15479302  0.034247812 0.0026952704  0.052009818   0.18932013    14823.992    -962936.6   -948112.61    105111.32   -337166.66   -738419.57    -970474.9    2944.1477    4058.0044     536.1503    7538.3024   -505.49742    342251.69   0.24877119   0.35939968    2.7591727 
       0.012 -0.0046323208 -0.0040697922     1200    301.64583    62.043487    61.975634    89.010468 -0.015594695  0.019265326   0.16640999 -0.0092489006 -0.035929175 -0.0011686093   0.17924754    14802.689   -962949.48   -948146.79    105176.43   -337249.06   -738411.48   -970484.11     2886.132    4091.3677    557.12929     7534.629   -559.52175    342261.67   0.25741169   0.36883062    2.8301369 
      0.0125 -0.004722745 -0.0044163374     1250    300.82051    62.037851    61.954069    89.054446 -0.00046222635 0.00066317078    0.1674305  0.016913343 0.0029621462  -0.01450313   0.17180168    14762.188    -962933.2   -948171.01    105119.81   -337195.72   -738433.73   -970509.65    2918.1166    4103.7842    554.54578    7576.4466   -551.46458    342280.52   0.26771415   0.37851947    2.8939286 
       0.013 -0.0046469779 -0.0048151507     1300     298.3756    62.042574    61.929251    89.098423 -0.0042938151 -0.023572981   0.15469601 -0.001077598 -0.016060258 -0.020503871   0.17536575    14642.209      -962829   -948186.79    105161.55   -337161.33    -738404.1   -970403.88    2911.4144    4108.4565    555.00503    7574.8759   -417.23566    342338.43   0.27812202   0.38862862    2.9462651 
      0.0135 -0.004498865 -0.0051361872     1350    301.38948    62.051806    61.909274    89.142401  0.025969141  0.020331029   0.18183635  0.013876946 -0.030393463  0.016936863   0.17150726    14790.109    -962967.9   -948177.79    105112.51   -337178.49   -738435.64   -970501.62    2870.0772    4125.5625    538.07933    7533.7191   -750.51078    342447.86   0.28577373   0.39907767    2.9928128 
       0.014 -0.0044642637 -0.005271865     1400    299.67072    62.053963    61.900831    89.186378 -0.021607961  -0.03206686   0.19989931 0.00031610452 0.0037367076  0.020108379   0.22966674    14705.764   -962872.67   -948166.91    104879.75   -336850.74   -738404.48   -970375.47    2871.3492    4025.9771    605.46611    7502.7924   -481.04117    342581.99   0.29208693   0.40953988    3.0529095 
      0.0145 -0.0046538667 -0.0053371526     1450    300.24941    62.042144    61.896768    89.230356   0.03013198 -0.00084097097   0.19738873 -0.0031000143 -0.027207952  0.014697957   0.19238586    14734.162   -962868.41   -948134.25    104671.72   -336744.35    -738403.7   -970476.33    2939.0762    4110.7448    558.10219    7607.9232   -745.71836    342663.14   0.29992829   0.42028985    3.1086027 
       0.015 -0.0050392489 -0.0055263303     1500    300.50701    62.018123    61.884996    89.274333  0.018033047  0.033691116   0.20746004 0.0041092821 -0.025754074 0.0019090735   0.18765156    14746.803   -962872.07   -948125.26    104716.88   -336747.51   -738406.95   -970437.58    2868.0813    4139.4839    557.95083     7565.516   -852.64972    342634.11   0.31075946   0.43130495    3.1495231 
      0.0155 -0.005453871 -0.0057977851     1550     300.1877    61.992278    61.868103    89.318311 0.0090131032 -0.016116444   0.19230153   0.01268265 -0.0043895602 0.0091627145   0.19905858    14731.134   -962849.97   -948118.84    104947.54   -336974.52   -738415.21   -970442.19    2914.9252     4111.228    566.06723    7592.2204   -609.25469    342566.51   0.32442054   0.44225541    3.1922622 
       0.016 -0.0058370202 -0.0059441179     1600    299.44202    61.968396    61.858997    89.362288 -0.028321965 -0.032534116   0.19916887 0.0065897388 -0.00046951982  0.033456661   0.23710131    14694.541   -962811.42   -948116.88    105039.06    -337023.4   -738408.67   -970393.02    2865.7125    4165.2209    550.66505    7581.5985   -455.01371    342552.71   0.33817994   0.45341749    3.2096337 
      0.0165 -0.0061416254 -0.0059648989     1650    299.35314    61.949409    61.857704    89.406266  0.021434624 0.0044539343   0.22715141 -0.0095602321 0.0043157148 -0.0076631943     0.215887     14690.18   -962791.37   -948101.19    104939.53   -336924.83   -738405.41   -970390.71    2874.7331    4170.7477    553.86304    7599.3439   -832.43677    342609.12   0.34966603   0.46490575    3.2220525 
       0.017 -0.0063745869 -0.0058964649     1700    300.01361    61.934888    61.861962    89.450243 -0.018730032  0.011369666   0.21359006 0.00043921195 -0.011772752 0.0046904735   0.21992778    14722.591   -962803.81   -948081.22    104692.37   -336700.55   -738398.21   -970406.39    2863.4984    4160.5639    578.51417    7602.5764   -678.44296    342720.89   0.36059175   0.47675275    3.2404067 
      0.0175 -0.0065717929 -0.0058490313     1750     301.8022    61.922596    61.864914    89.494221  0.014427583 -0.021617327   0.26226467 -0.0083571188 -0.017596472  0.010938175   0.27046827    14810.362   -962888.06    -948077.7    104642.09    -336636.2   -738415.67   -970409.78    2857.5685    4111.0474    553.10331    7521.7192   -839.13125    342837.69    0.3747812    0.4895709    3.2706993 
       0.018 -0.0067537679 -0.005914172     1800    297.92009    61.911253    61.860861    89.538198 -0.023728579  0.037663132   0.18851014 -0.021044425 -0.0063427513 0.0074652742   0.19339339    14619.855   -962682.76   -948062.91    104734.58   -336553.22   -738400.19   -970218.83    2882.2629    4079.0001    574.80383    7536.0668   -665.99124    342920.86   0.39109743   0.50350635    3.3082741 
      0.0185 -0.0068643852 -0.0061901873     1850    300.71969    61.904358    61.843684    89.582176  0.011137347  0.045018762   0.23872258 -0.00072392829  0.026196099 -0.013765133    0.2187711     14757.24   -962783.87   -948026.63    104632.66   -336593.08   -738414.24   -970374.66    2911.6935    4110.8418    568.26214    7590.7974   -970.07545    342955.82   0.40511283   0.51965518    3.3458563 
       0.019 -0.0069619776 -0.0066061093     1900    301.42008    61.898275    61.817802    89.626153  -0.01137586 -0.006107035   0.20535797 0.0056779117 -0.022239957  0.017907505    0.2200045    14791.611      -962805   -948013.39    104750.68    -336729.2   -738389.15   -970367.67    2905.1307    4082.1398    575.39792    7562.6685   -618.06094    342946.88   0.41611892   0.53829332    3.3852504 
      0.0195 -0.0070704196 -0.0070026805     1950    302.73652    61.891515    61.793124    89.670131  0.040406411 -0.018632613   0.25211576 0.0037435527 -0.013230574 0.0076163087   0.24808623    14856.212   -962879.99   -948023.78    104715.79   -336755.41   -738405.57   -970445.19    2932.2379    4082.0345     550.9256     7565.198   -901.02659    342940.73    0.4276479   0.55706755    3.4321341 
        0.02 -0.0072287221 -0.0073716966     2000    299.74293    61.881648     61.77016    89.714108 -0.048398764 -0.0053025203   0.20355085 -0.013025816 -0.0019980194 0.0091533265   0.23505352    14709.308   -962761.91    -948052.6    104860.64   -336795.83   -738398.96   -970334.16    2915.0731    4098.4076     558.7689    7572.2496   -492.96675    342926.73     0.442888   0.57569751    3.4770118 
      0.0205 -0.0073015582 -0.0075690179     2050    299.96238    61.877108    61.757881    89.758086  0.020238399   0.02299689    0.2687258   0.01131595 -0.030044104  0.024017556   0.25669198    14720.077   -962777.72   -948057.64    104835.86   -336823.94   -738384.46   -970372.54    2986.4234    4072.0427    536.35724    7594.8234   -1026.2722    343001.47   0.45940736   0.59302312    3.5192689 
       0.021 -0.0072903398 -0.0076028824     2100     299.1833    61.877807    61.755774    89.802063 -0.0092531731 -0.020621203   0.22052169 -0.0064203536 0.0073312255 -0.027467382   0.24101055    14681.845   -962740.07   -948058.23    104721.05   -336632.13   -738410.66   -970321.74    2828.4306    4182.7215    570.51951    7581.6716   -627.18091    343161.69   0.47522328   0.60805103    3.5570105 
      0.0215 -0.0072998844 -0.0075912054     2150    300.23844    61.877212    61.756501    89.846041  0.026869429 -0.0058405298   0.27139754 0.0049134927 -0.0044047282  0.016601015   0.26423447    14733.624   -962789.36   -948055.74    104506.76   -336479.78   -738421.05   -970394.08    2894.4362    4120.7435    589.53571    7604.7154   -962.00818    343330.48   0.49168699   0.62153559    3.5815378 
       0.022 -0.0074178158 -0.0076474323     2200     299.3215    61.869861    61.753002    89.890018 -0.028124807  0.024133077   0.27781074 0.0072950614 0.0066014205 -0.015049415   0.28514863    14688.626   -962724.42    -948035.8    104409.73   -336277.51   -738398.92   -970266.71    2876.2727     4106.136    559.87247    7542.2812    -900.7945    343438.27   0.50915329   0.63525197    3.6000433 
      0.0225 -0.0075705589 -0.0079519429     2250    300.41576     61.86034    61.734052    89.933996 0.0050564802  0.054996638   0.30236245 -0.001835951 -0.015176549 0.0042332955   0.27711407    14742.325   -962753.59   -948011.26    104528.72    -336451.4   -738396.12   -970318.79    2907.3804    4118.8352     538.9875    7565.2031   -1192.2545    343447.99   0.52551906   0.65128709    3.6344011 
       0.023 -0.0077589658 -0.0083763307     2300    299.75878    61.848596    61.707643    89.977973 -0.026134349 -0.053174639   0.21914468 -0.016313079  0.015642678 -0.0041318946   0.26288599    14710.085    -962709.2   -947999.11    104686.04    -336557.6   -738386.48   -970258.04    2867.7821    4120.4649    560.58964    7548.8366   -460.02367    343403.74   0.53974151   0.67004421    3.6818064 
      0.0235 -0.0079418779 -0.008606561     2350    299.74182    61.837195    61.693316    90.021951  0.012479199 0.0086931769   0.27087357  0.028928542 -0.022694093 0.00076683484   0.26798821    14709.253    -962679.4   -947970.15    104751.41   -336606.28   -738396.15   -970251.02     2888.681    4092.1815    590.76002    7571.6225   -960.75646    343428.49   0.55312325   0.68828695    3.7314872 
       0.024 -0.0081807839 -0.0085022279     2400     298.2233    61.822304    61.699809    90.065928 -0.023595187 -0.016951379   0.29605726 -0.016013885 -0.018942832 -0.028241694   0.32301195    14634.735   -962572.87   -947938.13    104666.59   -336530.88   -738386.11   -970250.39    2879.3295    4197.3174    600.87439    7677.5213   -840.56483    343549.67   0.56653603    0.7037707     3.778212 
      0.0245 -0.0084447557 -0.0082328424     2450     302.1557     61.80585    61.716572    90.109906  0.031105322 0.0050980766   0.29045548  0.008818229  0.017841683  0.020122345   0.27764519     14827.71   -962739.49   -947911.78    104216.45   -336127.67   -738409.68    -970320.9    2910.2221    4103.4186    567.76717    7581.4079   -1074.6242     343719.3   0.58043783   0.71707453    3.8207494 
       0.025 -0.0089669386 -0.0080027076     2500    300.86315    61.773301    61.730893    90.153883  0.021905959 -0.025287746    0.2891937 0.0057587448 0.0047675535 -0.0026734635    0.2940636     14764.28   -962686.66   -947922.38    104123.93   -336030.17   -738412.33   -970318.57    2917.4952     4127.361    587.05428    7631.9105    -940.2481     343785.7   0.59854058   0.73244679    3.8611619 
      0.0255 -0.0097226277 -0.0079806413     2550    299.96879    61.726197    61.732266    90.197861 -0.0053050512   0.12048155   0.30745356 -0.00024853709  0.018193045 -0.027692807   0.27855555    14720.391   -962661.61   -947941.22    104287.11   -336102.54   -738379.65   -970195.07    2868.9598     4104.435    560.07083    7533.4656   -1390.3448    343698.77   0.62102101   0.75159312    3.9107835 
       0.026 -0.010275155 -0.0083664313     2600    300.42374    61.691757    61.708259    90.241838 -0.068485119 -0.0098109901    0.2688942 -0.0052657421 -0.015815031 0.0092565244   0.31394681    14742.717   -962662.64   -947919.92    104535.69   -336405.77   -738409.53   -970279.61    2952.1275     4094.681    570.16112    7616.9696   -627.01898    343540.83   0.64409005   0.77199798    3.9394156 
      0.0265 -0.010356706 -0.0089133573     2650    301.34571    61.686674    61.674225    90.285816 -0.020614704 -0.032811093   0.30484139 0.0088200272 -0.028160795  0.015392728   0.33669436    14787.961   -962708.25   -947920.29     104692.2   -336605.42   -738393.81   -970307.02    2919.5636    4084.1833    595.02931    7598.7763     -827.093    343490.38   0.66349634   0.79054187    3.9694027 
       0.027 -0.010017021 -0.0093642579     2700    300.98545    61.707847    61.646166    90.329793 -0.0059303728 -0.001012082   0.34630438 -0.0056472368  0.003663715 -0.0078456245   0.35025951    14770.282   -962696.04   -947925.75    104511.32   -336382.42   -738401.41   -970272.51    2917.4313    4115.7662    543.27764    7576.4751   -1116.4139    343619.24   0.67802351   0.80766135    4.0002275 
      0.0275 -0.0095718165 -0.0096779022     2750    299.39924    61.735597    61.626648    90.373771  0.013440782 0.0016986753   0.30512565 -0.017550735  0.026408549 -0.0034562662   0.30281197    14692.441   -962605.85    -947913.4     104174.5   -335971.75   -738400.56   -970197.82    2979.4708    4049.4632    563.03673    7591.9708   -1053.5903    343832.25   0.69083305    0.8250202    4.0131054 
       0.028 -0.009408701 -0.0097919027     2800    302.76246    61.745765    61.619554    90.417748   0.01122581 -0.016968251   0.34162772  0.014357501 -0.0091260172 0.0033244427   0.34666572    14857.485   -962768.91   -947911.43     104026.7   -335948.42    -738376.5   -970298.22    2905.2803    4077.4885    546.54115    7529.3099   -1104.9767    344016.61   0.70723946   0.84103492    4.0520474 
      0.0285 -0.0095412804 -0.009749937     2850    298.42785    61.737501    61.622165    90.461726  0.020837177 -0.0080497325   0.37913658 0.0076761454 -0.022013386 -0.020073892   0.37736255    14644.772   -962551.55   -947906.78    104128.06    -335937.4   -738370.23   -970179.56     2963.657    4100.1378    564.21577    7628.0106   -1289.3298    344152.45   0.72907769   0.85543367    4.0924177 
       0.029 -0.0097048413 -0.0096336534     2900    298.18778    61.727306    61.629401    90.505703 0.0082233841  0.020538361   0.35797001 -0.026627798 -0.0030782991  0.021959091   0.34895472    14632.992   -962514.92   -947881.93    103852.98   -335690.26   -738385.23    -970222.5    3011.7614    4125.9894    569.82994    7707.5808   -1272.2486    344303.33   0.75209897   0.87083317    4.1157738 
      0.0295 -0.009889509 -0.0096787191     2950    300.02213    61.715795    61.626597    90.549681 -0.016674186 0.0047925899   0.38498312  0.013672844  0.034072995 -0.0070993415   0.39668889    14723.009   -962595.65   -947872.64    103757.61   -335554.72   -738386.71   -970183.83    2865.7918    4139.4626    582.92384    7588.1782   -1227.4086    344390.72   0.77324135   0.89059319    4.1261337 
        0.03 -0.010155268 -0.0099776485     3000    299.46616     61.69923    61.607995    90.593658  0.017610068  0.032694844   0.39879515  0.011307871 0.00025627524 -0.0014307441   0.37439213    14695.725   -962548.47   -947852.75    103904.88   -335744.57    -738381.7   -970221.39    2928.2799     4157.843    586.79264    7672.9155   -1477.4243    344361.52     0.792451   0.91433115    4.1620304 
      0.0305  -0.01052068 -0.010345844     3050    298.56766    61.676453    61.585083    90.637636 -0.0011858454 -0.018427139   0.34604542 -0.012131762 -0.015703687  0.013362477   0.35856737    14651.634   -962512.47   -947860.84    104277.81   -336016.21   -738379.17   -970117.57    2878.6546    4187.6429    538.80261    7605.1002   -1073.8792    344273.41   0.81039056   0.94011903    4.2089737 
       0.031 -0.010839617 -0.010447955     3100    297.96561    61.656573    61.578728    90.681613 -0.010551938 -0.047010483   0.34742686 -0.0092138716  0.004152196 0.0076868115   0.37817073    14622.089   -962467.77   -947845.68    104416.34   -336102.58   -738383.14   -970069.38    2856.3608    4159.9012    585.34239    7601.6044   -953.57988     344293.9   0.82654477   0.96411573    4.2527302 
      0.0315 -0.011052725 -0.010224339     3150    300.44801    61.643289    61.592644    90.725591 0.0063188304  0.016899877    0.3794929  0.029704723 3.452152e-05 0.0018147233   0.37159018    14743.908   -962540.26   -947796.35    104046.36   -335780.79   -738377.12   -970111.54    2881.5923    4128.2343    561.45386    7571.2805   -1324.8182    344464.49     0.843331   0.98382268    4.2628564 
       0.032 -0.011218949 -0.010055817     3200    302.94771    61.632928    61.603131    90.769568 -0.0044122524   0.01595691    0.3966425 -0.0024707375 -0.032946025  -0.01928339   0.39683857    14866.576   -962653.67   -947787.09    103791.91   -335614.55   -738390.06    -970212.7    2881.7031    4113.4783    563.85131    7559.0327   -1342.8314     344632.2   0.86362241    1.0023762    4.2756125 
      0.0325 -0.011410945  -0.01001756     3250    300.34062     61.62096    61.605511    90.813546  0.015122642 -0.0096213783   0.33715287 -0.0011681153 -0.023569958 0.0070133074   0.33779038    14738.638   -962536.07   -947797.43    103882.65   -335590.93   -738374.75   -970083.04    2865.5451    4134.3256    547.09699    7546.9677   -1127.2445    344745.55   0.88521288    1.0221921    4.3036559 
       0.033 -0.011575238 -0.010145767     3300    299.85223     61.61072    61.597533    90.857523 -0.0049792272  0.052777768   0.43393586 -0.017514744 -0.026295108 -0.0059228657    0.4168114    14714.671   -962503.35   -947788.68    103793.08    -335557.4   -738369.18    -970133.5    2905.8731    4170.8488    553.42046    7630.1424    -1584.783    344810.51   0.90584695    1.0431149    4.3480202 
      0.0335 -0.011737553 -0.010586657     3350    299.38606    61.600602    61.570097    90.901501 -0.023693364 -0.0085792078   0.35046123 -0.018166252 -0.018648998 -0.012427516   0.37021857    14691.795   -962473.42   -947781.62    103809.84   -335549.74   -738365.21   -970105.11    2903.3551    4162.2839    566.06041    7631.6994   -1046.7593    344767.13   0.92791719    1.0661655    4.3846792 
       0.034 -0.011905477 -0.011211597     3400    298.89126    61.590135    61.531208    90.945478  0.026088263  0.039903186   0.39217695 -0.0086125593 -0.018316477 -0.0049645716   0.36118865    14667.513   -962427.81    -947760.3    103969.57   -335650.68   -738387.73   -970068.84    2903.6581    4161.1714    576.19405    7641.0236   -1507.2568    344657.48   0.95227119    1.0908278     4.429601 
      0.0345 -0.012055694 -0.011851598     3450     300.9835    61.580772    61.491381    90.989456 -0.031758778 -0.013507941   0.36746173 0.0040030663 0.0027523693 -0.0016506099   0.39051629    14770.186   -962508.76   -947738.57    104133.55   -335843.74   -738374.31    -970084.5    2891.4291    4089.7918    594.52033    7575.7412   -1059.9392    344548.56   0.97794539     1.117348    4.4615035 
       0.035 -0.012037009  -0.01243859     3500    301.82164    61.581937    61.454853    91.033433 -0.044856783 -0.017035632   0.39293999 -0.026317323  0.018186846 0.0022237336   0.42818798    14811.316   -962545.17   -947733.86    104271.92   -336054.52   -738389.97   -970172.58    2914.9893    4136.1217    576.29373    7627.4048   -1089.0619    344516.84    1.0044673    1.1433176    4.4902265 
      0.0355  -0.01182025 -0.012630211     3550    300.32869    61.595448    61.442929    91.077411  0.015370557 -0.041370455   0.34815424 0.0084182811 -0.023761308 -0.0028619948   0.36712121    14738.053   -962490.58   -947752.52    104169.19   -335866.82   -738378.22   -970075.85    2913.4216    4092.2329    579.61823    7585.2727   -1059.8054       344692    1.0289891    1.1651189    4.5168668 
       0.036  -0.01161049 -0.012440368     3600    299.32647    61.608522    61.454743    91.121388  0.021883599  0.046084617    0.4150871 -0.0082589248 -0.008481282 -0.027703879   0.38522941     14688.87   -962448.98   -947760.11    103869.33   -335617.64   -738366.01   -970114.33    2956.0286    4123.2102     586.1056    7665.3444   -1589.1284    344997.96    1.0482746    1.1856573    4.5563477 
      0.0365 -0.011516677 -0.012265218     3650    299.96252     61.61437    61.465642    91.165366 -0.0093703094 -0.014378058   0.40254707 0.0010370757 0.0029136249 -0.023883708   0.41653784    14720.083   -962467.94   -947747.86    103671.13    -335338.6   -738381.22    -970048.7    2920.0044    4088.3719    572.37681     7580.753   -1246.1509    345258.45    1.0650901    1.2087006    4.5715388 
       0.037 -0.011474877 -0.012295875     3700    300.89009    61.616975    61.463734    91.209343  0.021631506  0.024366312    0.4060951  0.020958317 -0.018723004 0.00067361671   0.38618528    14765.602   -962494.98   -947729.37    103639.06   -335307.04   -738361.24   -970029.22    2905.1745    4089.4241     539.6413    7534.2399   -1487.2701    345428.88    1.0870621    1.2323014    4.6164401 
      0.0375 -0.011582546 -0.012547028     3750    299.86005    61.610264    61.448105    91.253321  0.023532359   0.01708302   0.42606145 -0.0050755109 -0.022200679 0.0078151194   0.40792944    14715.055   -962431.44   -947716.39    103672.01   -335316.59   -738378.29   -970022.87    2857.2254    4159.7246    574.48073    7591.4307   -1535.2474    345469.92     1.118927    1.2563118    4.6714907 
       0.038 -0.012010008 -0.012846397     3800    300.21693     61.58362    61.429476    91.297298 -0.018612193  0.010741818    0.4201554 0.0042127457  0.006522984 -0.025611343   0.42737312    14732.568    -962430.1   -947697.53    103702.07   -335343.22   -738361.83   -970002.99    2940.5641    4104.6837    527.63917    7572.8869   -1356.3123     345382.2    1.1573315    1.2835517    4.6880435 
      0.0385 -0.012728919 -0.013000647     3850    299.88588    61.538808    61.419877    91.341276  0.019568589 -0.010054259   0.42909119 -0.010974924 -0.00096511315  -0.01759778    0.4266271    14716.323   -962400.29   -947683.97    103897.32   -335578.45   -738369.46   -970050.59    2903.5088    4192.2751    554.51341    7650.2973      -1442.9    345243.17    1.1952941    1.3131347    4.7124303 
       0.039 -0.013406618 -0.013030596     3900    297.85882    61.496566    61.418013    91.385253  -0.01282838 -0.015926847   0.40586906 -0.00071078485  0.004922579  0.013096119    0.4209551    14616.848   -962282.66   -947665.81    104159.45   -335702.94   -738338.35   -969881.84    2843.1788    4183.1569    572.83859    7599.1743    -1240.608    345161.82    1.2269337    1.3425829    4.7691264 
      0.0395 -0.013732403  -0.01294843     3950    301.24108    61.476259    61.423126    91.429231 -0.044370991 -0.022849598    0.4210516 0.0061376264 -0.013314801 0.0071868833   0.45592174    14782.826   -962404.26   -947621.43     104078.1    -335704.2   -738368.34   -969994.43    2901.2735    4114.7801    574.12478    7590.1784   -1164.0135    345242.63    1.2493689     1.370708    4.8169931 
        0.04 -0.013747846 -0.012736284     4000    300.62773    61.475296    61.436328    91.473208 -0.013472553 -0.015369514   0.41500346 1.6524948e-05 0.0072711138 -0.0010911181   0.42961643    14752.728   -962347.49   -947594.77    103919.85   -335526.38   -738361.26   -969967.78    2857.5923     4204.058    558.63935    7620.2897   -1270.3722    345477.52    1.2672229    1.3979116    4.8390386 
      0.0405 -0.013695468 -0.012498648     4050    300.38609    61.478561    61.451116    91.517186  0.018032739  0.054076504   0.46284689 -0.011268217 -0.042088338 0.0020869897   0.43455065    14740.869   -962324.53   -947583.66    103572.37   -335131.68   -738363.09    -969922.4    2902.9507    4132.1792    562.74203    7597.8719   -1759.8688    345745.17    1.2898555    1.4236063    4.8597989 
       0.041  -0.01375942 -0.012516927     4100    301.32532    61.474575    61.449978    91.561163  0.020094264 -0.0014521392    0.4393044 -0.016022388  0.028752715 -0.016780034   0.43511937     14786.96   -962370.17   -947583.21    103136.54    -334752.9   -738345.61   -969961.97    2939.5851    4125.2744     526.9337    7591.7932   -1506.5269    345882.49    1.3221736    1.4508233    4.8787417 
      0.0415 -0.014140594 -0.012918073     4150    300.69018    61.450815    61.425016    91.605141  0.043817287  0.033175285    0.4586062   0.02267563 0.0015824051   -0.0123407   0.42259226    14755.792   -962347.36   -947591.57    103385.44   -334958.44   -738352.87   -969925.88    2837.3034    4153.8158     587.3956    7578.5147    -1761.983    345774.35    1.3615009    1.4856451    4.9132736 
       0.042 -0.014622298 -0.013633904     4200    299.44047     61.42079     61.38047    91.649118 -0.025430433  0.030718139   0.42726734 -0.010225194   -0.0368657 0.0048050637   0.43258499    14694.465   -962262.04   -947567.58    103906.48    -335410.1   -738347.17   -969850.79    2880.4904    4136.4115    571.84698    7588.7489   -1422.9955    345520.56    1.4004593    1.5260938    4.9637918 
      0.0425 -0.014849867 -0.014305858     4250      299.808    61.406605    61.338655    91.693096 -0.073817342 -0.023475012   0.43483678 -0.016901485 0.0040739388 -0.022670554   0.48796021    14712.501   -962250.04   -947537.54    104105.75   -335683.61   -738372.26   -969950.12    2992.8362     4174.809    532.43835    7700.0835   -1110.4348    345371.08    1.4335125    1.5635832    5.0184921 
       0.043 -0.014713278 -0.014579945     4300    300.36708    61.415119    61.321599    91.737073  0.013617555 -0.051069196   0.42709418  0.031876901 -0.0088171585 -0.0032804168   0.45299854    14739.936    -962275.6   -947535.66    104026.83   -335456.99   -738346.15   -969776.31    2873.3807    4101.8802    525.44777    7500.7087   -1281.8243    345488.54    1.4605874    1.5925171    5.0783658 
      0.0435 -0.014438594 -0.014486099     4350    299.26988     61.43224    61.327439    91.781051  0.028436589  0.018346576   0.48134243 0.0057768011 0.0039767233  0.020024167   0.45950603    14686.093   -962202.53   -947516.44    103499.76   -335081.03   -738341.63    -969922.9    2967.2206    4178.1568    574.99502    7720.3724   -1737.3981    345783.46    1.4857947    1.6181015    5.1068548 
       0.044 -0.014276133 -0.014458893     4400    299.80309    61.442367    61.329132    91.825028 -0.024166772   0.02849624   0.43169613 0.0028529078 -0.026593962 0.0064262893   0.43456563     14712.26      -962237   -947524.74    103314.19   -334803.15   -738335.21   -969824.17    2910.5279    4125.0297    551.61953    7587.1771   -1434.4127    346015.72    1.5143971    1.6481188    5.1284684 
      0.0445  -0.01436853 -0.014580999     4450     302.9559    61.436608    61.321534    91.869006  0.058804065 -0.036268605   0.47083247 0.0073759687 -0.034991441 -0.036801374   0.47526655    14866.978   -962391.21   -947524.24    103385.03   -334963.07    -738345.1   -969923.14    2849.0334     4125.843    557.04996    7531.9263   -1623.0543     346106.1     1.547389    1.6827025    5.1784185 
       0.045 -0.014780959 -0.014649925     4500     299.8925      61.4109    61.317244    91.912983  0.035674288 0.0086121003   0.48983719 -0.041555418 -0.009458962  0.033153063   0.47752832    14716.647   -962246.99   -947530.34    103573.51   -335121.28   -738350.19   -969897.96    2936.5668     4129.498    584.90285    7650.9677   -1757.1299    346102.67    1.5847502    1.7190823    5.2449978 
      0.0455 -0.015295025 -0.014580082     4550    299.30495    61.378857    61.321591    91.956961 -0.049174591 -0.027656837   0.42393765  0.039465976  0.001937136 0.0011549609   0.46776687    14687.814   -962234.14   -947546.33     103669.7   -335172.89   -738331.41   -969834.61    2882.4345    4149.9217    568.11254    7600.4687   -1141.8907    346112.13    1.6219361    1.7563917      5.29308 
       0.046   -0.0155897 -0.014481953     4600    298.97614    61.360489    61.327697    92.000938 -0.033799064  0.068026138   0.48135736  0.028600401 -0.026665411 -0.023902427   0.47916559    14671.679    -962201.8   -947530.12    103656.53   -335120.71    -738326.9   -969791.09    2876.5053    4145.7199    567.06376    7589.2889   -1696.1409     346208.5    1.6535741    1.7931272    5.3320055 
      0.0465 -0.015569761 -0.014630753     4650    300.54253    61.361732    61.318437    92.044916 0.0073249962  0.010805335   0.44610731 -0.026588661 0.0004021406 -0.025220298   0.44163839    14748.547   -962246.42   -947497.87    103586.22   -335087.54   -738340.58   -969841.91    2929.0309     4110.157    556.29641    7595.4843   -1527.2231    346328.71    1.6827529     1.827568    5.3571304 
       0.047  -0.01541965 -0.015003018     4700    298.53348    61.371089    61.295272    92.088893 -0.019366889  0.015763351   0.47613336 -0.011307769 -0.018437029 -0.0056059684   0.48046356    14649.956   -962133.15    -947483.2    103590.92   -335049.16   -738336.48   -969794.72    2946.5465     4135.663    579.36053    7661.5701   -1554.5022    346416.09    1.7158037    1.8605437    5.3919549 
      0.0475 -0.015368335 -0.015394392     4750    297.11827    61.374288    61.270917    92.132871 -0.012634074 -0.0069458858   0.43344684  0.011669321 -0.0061654625  -0.01335857   0.44445591    14580.507   -962029.21    -947448.7    103697.02   -335110.58   -738327.83   -969741.38    2915.0454     4219.486    577.64474    7712.1761   -1361.5162    346461.87    1.7523387    1.8947022    5.4161851 
       0.048 -0.015447829 -0.015743872     4800    301.51335    61.369333    61.249169    92.176848  0.077408995  0.012944841   0.45790292 -0.0068217365  0.021410313 0.0058643795   0.41842258    14796.188   -962219.27   -947423.08    103653.18   -335161.35   -738338.56   -969846.73    2934.3152    4151.6439    541.50223    7627.4613   -1803.6245    346476.24     1.786335    1.9325789    5.4328423 
      0.0485 -0.015570962  -0.01603784     4850    298.54633    61.361657    61.230876    92.220826 -0.049791852 -0.032136106   0.47018146 -0.0067318828 -0.00053385166 0.0072048153   0.51166004    14650.586   -962062.76   -947412.17    103627.08   -334953.22   -738326.98   -969653.12    2909.5152    4126.1724    554.67197    7590.3596   -1277.2547    346494.67    1.8174346    1.9713624    5.4502285 
       0.049 -0.015699791  -0.01613038     4900    302.01868    61.353627    61.225117    92.264803  0.018725983  0.010064001   0.48332953   0.01453218 -0.036978601 -0.00032607943   0.47401688    14820.986   -962210.75   -947389.76    103548.07   -334984.26   -738343.64   -969779.83    2910.7364    4102.9545    555.39339    7569.0843   -1684.7422    346581.94    1.8493753    2.0059143    5.4948305 
      0.0495 -0.015870041 -0.016150986     4950    300.48623    61.343015    61.223835    92.308781  0.012864359 -0.011655513   0.48410439 -0.019543872 0.0083580524 0.00043474906   0.48536498    14745.783   -962125.18   -947379.39    103469.57   -334843.52   -738319.38   -969693.33    2830.7512    4177.3345    560.07069    7568.1563   -1596.5564     346679.9    1.8845892    2.0384103     5.536119 
        0.05 -0.016068096 -0.016248227     5000    299.76589     61.33067    61.217784    92.352758 -0.020581376 0.0095464058   0.50669653 -0.0094486583 0.0040428925 -0.0053607029   0.51327092    14710.434   -962065.81   -947355.38    103456.87   -334791.72   -738330.52   -969665.38    3008.5185    4074.3863    516.66112     7599.566   -1630.5998    346740.99    1.9215233    2.0719191    5.5531325 
      0.0505 -0.016301777 -0.016362673     5050    303.52659    61.316104    61.210662    92.396736  0.020392409 -0.030682103   0.47843772 0.0094329081  0.010800281 -0.018042743   0.48723922    14894.983   -962240.79   -947345.81    103388.26   -334809.01   -738328.54    -969749.3    2902.9789    4087.4696     518.0534    7508.5019   -1540.0873    346783.37      1.95966    2.1059161    5.5727396 
       0.051 -0.016757198 -0.016495393     5100    301.30445    61.287717    61.202403    92.440713  0.061215578  0.068974863   0.46131207 -0.0039070234 -0.022447905 -0.035610255    0.4029823    14785.936   -962137.95   -947352.02    103556.24    -334981.2   -738308.78   -969733.74    2928.5432    4130.6829    536.55727    7595.7834    -1945.892       346741    2.0023207    2.1442479     5.601466 
      0.0515 -0.017309335 -0.016642019     5150    298.47821    61.253301    61.193278    92.484691 -0.042434398  -0.06389311    0.4703249  0.007235783  0.027116585 -0.011694363   0.52645893    14647.244   -962008.66   -947361.42    103730.09   -335045.73   -738334.25   -969649.89    2914.2499    4158.4338    568.54253    7641.2262   -1197.4583    346659.47     2.045861    2.1876874    5.6453417 
       0.052 -0.017609708 -0.016648558     5200    298.22481    61.234578    61.192872    92.528669 -0.050128084 -0.0070056277   0.50777233 0.0092972281 0.0049068703 0.00096291918   0.53794862    14634.809   -961971.85   -947337.04    103886.67      -335082   -738294.71   -969490.04    2880.3528    4097.3953    540.44578    7518.1938   -1482.4858    346715.99    2.0821333    2.2295167     5.682284 
      0.0525  -0.01750402 -0.016566605     5250       301.35    61.241165    61.197971    92.572646 -0.0019750413  0.037047379   0.49112416 0.0027822656 -0.0063875854 0.0079879795   0.47514703    14788.172   -962073.45   -947285.28    103321.62   -334688.57   -738328.81   -969695.76    2923.1777    4175.9722    523.15424    7622.3042   -1731.0519    346947.01    2.1100427    2.2637168    5.7214757 
       0.053 -0.017329974 -0.016741603     5300    299.73307    61.252014    61.187081    92.616624 -0.016508536  0.028487989   0.49988532 -0.017236312  0.013332748 -0.0047371499   0.49693385    14708.824   -961993.46   -947284.63    103201.15   -334526.76   -738311.22   -969636.83     2964.778    4128.1185    550.47452     7643.371   -1683.9042    347111.54    2.1410973    2.2960093      5.76733 
      0.0535 -0.017231975 -0.017149559     5350    300.95417    61.258123    61.161695    92.660601  0.016667329   0.01255771   0.50704732 0.0023616363 0.0013290124 -0.010713088   0.49281948    14768.747   -962052.72   -947283.98    103158.74   -334526.42   -738326.99   -969694.67    2869.4277    4185.5579    586.96342     7641.949   -1764.1989     347166.9    2.1796615    2.3297288    5.8215255 
       0.054 -0.017259978 -0.017690604     5400     300.5691    61.256377    61.128026    92.704579  0.048244396  -0.01081236   0.51108886 0.0022927592 -0.036881807 0.0051173441   0.49922132     14749.85    -962038.2   -947288.35    103473.26   -334772.36   -738321.39   -969620.49    2884.1684    4139.6978    558.42563    7582.2918   -1804.4935    347130.57     2.223967    2.3684896    5.8666043 
      0.0545 -0.017398657  -0.01807518     5450    301.42929    61.247733    61.104094    92.748556 -0.049667784   -0.0144067   0.48129115 0.0061105806 0.0066690135 -0.014679868    0.5151024    14792.062   -962073.61   -947281.54    103537.47   -334870.54   -738321.07   -969654.14    2957.3064    4066.3486    556.87928    7580.5343   -1372.5361    347110.29     2.268135    2.4094873    5.8914118 
       0.055 -0.017551794 -0.018228756     5500    301.53372    61.238188    61.094538    92.792534 -0.0049305949 0.0037638484   0.49249582 0.0010294258   0.02326053 -0.0068456429   0.49492495    14797.187   -962076.08    -947278.9    103605.07    -335007.4   -738326.31   -969728.64    2922.1902    4166.1806    564.18543    7652.5562    -1616.347    347166.45    2.3089448    2.4484099    5.9399883 
      0.0555 -0.017563655  -0.01826422     5550    299.55504    61.237448    61.092331    92.836511  0.019348885 -0.015202688   0.50171666 0.0050747093 -0.027209309 0.0038070341   0.50287257    14700.087   -961986.73   -947286.65    103644.67   -334908.13    -738316.9   -969580.36    2942.1401    4087.7701    563.72133    7593.6316   -1664.1594    347314.24    2.3434101    2.4870292    5.9887259 
       0.056 -0.017477141 -0.018186955     5600    299.18495    61.242841    61.097139    92.880489 0.0049753376 -0.011652939   0.47952021  0.019211296 -0.0069360616 -0.020881994   0.48571588    14681.926    -961950.1   -947268.18    103267.39   -334607.15   -738318.83   -969658.59    2971.7104     4153.912     582.8696     7708.492   -1555.5312    347536.72    2.3719358     2.526941    6.0109097 
      0.0565 -0.017490173  -0.01816661     5650    300.94203    61.242029    61.098405    92.924466 0.00092724805  0.067521835   0.48805156 -0.0021633519 -0.0077095684 0.0041008014   0.45774217    14768.151      -962016   -947247.85    103111.89   -334382.63   -738299.71   -969570.45    2881.9049    4105.2245    567.31259     7554.442   -1830.7448    347703.86    2.4059552    2.5665683    6.0270852 
       0.057 -0.017772712 -0.018345086     5700    300.40969    61.224417    61.087299    92.968444  0.030070788 -0.0046388025   0.56263023 0.00013943673  0.025683512 -0.013271811   0.55300692    14742.027   -961969.51   -947227.49    103109.85   -334491.82   -738307.58   -969689.54    2997.4404     4143.363     579.2277    7720.0311   -1934.5743    347705.16    2.4539756    2.6052136    6.0580735 
      0.0575 -0.018221669 -0.018680415     5750    299.75297    61.196433    61.066431    93.012421 -0.011941439 -0.027828022   0.47077469 0.0086501749 -0.0077619613 -0.015868846   0.49203317      14709.8   -961956.67   -947246.87    103576.98   -334937.35   -738312.39   -969672.76     2983.511    4142.1215    590.45671    7716.0892    -1417.897    347591.86    2.5085282    2.6477819    6.0937077 
       0.058 -0.018465083 -0.018991726     5800    300.53364     61.18126    61.047059    93.056399 -0.013621598   0.01150433   0.47251747   0.01498495 -0.0035426663 0.0014504307   0.47483199     14748.11   -962001.53   -947253.42    103693.87   -334966.11   -738301.67   -969573.92    2898.9144    4108.7914    564.68093    7572.3867   -1547.4964    347559.69    2.5552431     2.693529    6.1463463 
      0.0585 -0.018512117 -0.019195482     5850    301.79073    61.178329    61.034379    93.100376  0.016702505  0.020311839   0.55655037  0.026855027 0.00046464657 0.00064413238   0.54006085    14809.799    -962048.5   -947238.71    103402.09   -334712.79   -738321.17   -969631.87    2966.1177    4049.1352    568.11388    7583.3667   -1952.6761    347635.06    2.5918953    2.7374774    6.2095193 
       0.059 -0.018660283 -0.019283671     5900    299.22122    61.169093    61.028891    93.144354  0.023848374 -0.040565358    0.4608412 0.0042144388  0.016837333 -0.018797046   0.47457766    14683.706   -961934.12   -947250.42    103191.51    -334466.6   -738302.17   -969577.25     2957.586    4108.9292    576.61582    7643.1311   -1461.0551     347715.5    2.6257616    2.7806936    6.2904057 
      0.0595  -0.01897251 -0.019329957     5950     298.1681    61.149631    61.026011    93.188331  0.010249887    0.0169176   0.54259028 0.0059418807  0.019662164 -0.0066350244   0.53035748    14632.026   -961878.41   -947246.38    103312.79    -334531.1    -738299.8   -969518.12    2951.2263    4114.4014    574.08487    7639.7125   -1874.3573    347752.58    2.6633842    2.8258356    6.3635372 
        0.06 -0.019329381 -0.019297126     6000    299.70892    61.127387    61.028054    93.232309 -0.012829912 -0.015087143   0.56576825  0.017703027 0.0072219742  0.012482576    0.5810775    14707.639   -961921.89   -947214.25    103426.01   -334695.38   -738301.81   -969571.18    2935.4124    4146.0758    567.80613    7649.2943   -1769.3929    347801.77     2.708351    2.8710815    6.4006227 
      0.0605 -0.019478529 -0.019194875     6050    299.29558     61.11809    61.034417    93.276286 -0.016684884 0.0015736644   0.53836405  0.014993585  0.010151607  0.020101096   0.54815514    14687.355   -961881.19   -947193.84    103404.16   -334633.56   -738302.38   -969531.78    2875.9698    4225.4094    549.20822    7650.5874    -1721.368    347949.18    2.7590569    2.9114974    6.4293652 
       0.061 -0.019298318 -0.019238065     6100    299.44386    61.129323    61.031729    93.320264 -0.058943601  0.061083094   0.52966585  0.007362997 -0.0067404793  0.024242825   0.54062994    14694.631   -961864.03    -947169.4    103147.52   -334271.67    -738295.7   -969419.86    2869.9189    4164.5052    521.40494    7555.8291   -1749.5035    348161.88    2.8095806      2.94879    6.4858377 
      0.0615  -0.01902892 -0.019607774     6150    300.42624    61.146115    61.008723    93.364241  0.039868309  0.023896986   0.57277468 -0.0045923039 0.0091042615 -0.0019157807    0.5413672    14742.839    -961891.7   -947148.86    103147.55   -334289.33   -738265.68   -969407.46     2896.254    4066.6523    552.85925    7515.7656   -2094.0537     348290.3    2.8573002    2.9919234    6.5560431 
       0.062 -0.018863187 -0.020171425     6200    301.73292    61.156446    60.973647    93.408219  0.015989267 -0.038559483    0.5467488 -0.00065802088   0.01530728 -0.0087679424   0.56086396    14806.963   -961917.15   -947110.19    103172.19   -334361.04   -738297.66    -969486.5    2890.0443    4105.2053    574.10054    7569.3502   -1724.4135    348312.85    2.9041549    3.0435106    6.5855355 
      0.0625 -0.018928919 -0.020620119     6250    299.73829    61.152348    60.945726    93.452196 -0.0038362774 -0.0039335992   0.52788016  0.007142294 -0.0026911583 -0.021470742   0.53322779     14709.08   -961790.12   -947081.04    103415.48   -334527.24   -738270.57   -969382.32    2931.9603    4080.8049     579.4331    7592.1982   -1711.0298    348293.93    2.9562997    3.0964673    6.6271372 
       0.063 -0.019249475 -0.020825825     6300    299.06938    61.132367    60.932925    93.496174 0.0041682108 -0.016183256   0.56352515 -0.010198886 -0.025234969 0.0056951666   0.57183727    14676.254    -961723.3   -947047.04    103608.03   -334672.54   -738285.97   -969350.49    2915.7228    4159.1716    552.29568    7627.1901   -1814.3272    348270.81    3.0130116    3.1451223    6.6836957 
      0.0635 -0.019601688  -0.02077763     6350    300.50554    61.110413    60.935924    93.540151  0.019336231 -0.024321354   0.49381941 0.00067194546 -0.001714454 -0.015158586   0.49845218    14746.731   -961746.63    -946999.9    103602.02   -334691.23   -738290.36   -969379.56    3004.0174    4055.3817    573.52841    7632.9275   -1608.1398    348326.64    3.0631168    3.1913878    6.7468758 
       0.064  -0.01984493 -0.020492787     6400    299.42952    61.095251    60.953649    93.584129 -0.029720109 -0.0023017408   0.54222049 -0.017179769 -0.015184089  0.018332378   0.56104498    14693.928    -961669.3   -946975.37    103489.64   -334612.33   -738283.81   -969406.51    2995.5909     4137.722    603.89445    7737.2074    -1678.423    348505.29    3.1006299    3.2407167    6.7807451 
      0.0645 -0.020051822 -0.020098003     6450    298.41488    61.082355    60.978216    93.628106  0.020407122 0.0051690167   0.55230882 -0.017861085 -0.018753734  0.020896011   0.54275122    14644.136   -961602.22   -946958.09    103299.58   -334338.23   -738266.76   -969305.41    2977.6856     4148.043    577.45598    7703.1845   -1901.0937    348735.96    3.1346665    3.2906017    6.8121965 
       0.065  -0.02031786 -0.019779013     6500     299.9909    61.065773    60.998067    93.672084   0.01563326  0.026553226   0.54444341 0.00045097993 0.0041677946 -0.011463805    0.5238624    14721.476   -961655.16   -946933.68    103119.57   -334195.79   -738259.53   -969335.74    2948.6768    4181.7088    550.19986    7680.5855   -1929.8623    348918.59    3.1754991    3.3369112    6.8911126 
      0.0655 -0.020552332 -0.019787148     6550    302.06363    61.051157    60.997561    93.716061 -0.045722443  0.032102589   0.55874475 0.0081850047 -0.022279721 0.0033272135   0.57106742    14823.191   -961747.48   -946924.29    103228.35   -334334.93   -738273.71   -969380.29    2878.0783    4182.8706    571.86543    7632.8144   -1793.3215    348995.96    3.2247435    3.3848273    6.9739284 
       0.066 -0.020682896 -0.020084808     6600     300.5109    61.043019    60.979038    93.760039  0.017808846 0.00079318599   0.57347589 -0.032691771 -0.0013390664  0.016170953   0.56789662    14746.994   -961679.97   -946932.98    103445.42   -334432.74   -738293.58    -969280.9    2921.4667     4095.492    583.97423    7600.9329   -1947.7849    349007.17    3.2793364     3.436709    7.0165848 
      0.0665   -0.0207404 -0.020361675     6650    299.51072    61.039435    60.961808    93.804016 0.0074408078 -0.028333091    0.5173101 -0.018887481 -0.0023924028 -0.028617872    0.5320064    14697.912   -961628.49   -946930.58    103377.98   -334322.24   -738289.35   -969233.61    2903.2168    4148.2718    553.63132    7605.1199   -1633.0876    349051.72    3.3341133    3.4855736    7.0518528 
       0.067 -0.020735149 -0.020522976     6700    302.08431    61.039762    60.951771    93.847994 -0.024698264   0.01859784   0.57360534  0.012768957 -0.023905898  0.013282906   0.58023311    14824.206   -961740.88   -946916.67    103306.02   -334329.73    -738253.6   -969277.31    2896.7529    4083.7485    555.92928    7536.4307    -1866.946    349159.73    3.3829249    3.5319724    7.1120583 
      0.0675 -0.020591342 -0.020802563     6750    301.37018    61.048726    60.934372    93.891971 -0.025026803  0.018806575   0.57192223 0.00081205282 -0.0041250532  0.022199651   0.57761122    14789.162   -961703.45   -946914.29    103310.58    -334375.3   -738290.43   -969355.15    2866.8166    4203.5792    581.30201    7651.6979   -1861.0149    349274.92    3.4259986    3.5812688    7.1696906 
       0.068 -0.020389389 -0.021199973     6800    300.20216    61.061314    60.909642    93.935949  0.019553605 -0.020538196   0.56353121 -0.017498119 -0.014491438 -0.010425859   0.56674746    14731.843   -961651.42   -946919.57    103290.22   -334321.84   -738263.07   -969294.68    2975.8584    4089.0921    578.31717    7643.2677   -1850.6345    349368.72    3.4706376    3.6321661    7.2149071 
      0.0685 -0.020279727  -0.02149373     6850    301.44923    61.068149    60.891362    93.979926 0.0029724281  0.022128095    0.5580575 0.0008738173 -0.00054848796 0.0051289363   0.54583464    14793.041   -961708.65   -946915.61    103106.43   -334132.85   -738290.52   -969316.94    2939.8607     4108.086     560.3392    7608.2859   -1918.4407     349466.5    3.5194501    3.6812911     7.262566 
       0.069 -0.020353137 -0.021768782     6900    302.77236    61.063574    60.874246    94.023904  0.039469115 0.0011814417   0.58706074 -0.019238459 -0.0099926444   0.02282009   0.57031634    14857.971   -961788.07    -946930.1    102963.99   -334076.42   -738263.56   -969375.99    2921.2183    4090.4609    576.23719    7587.9163   -2065.0096    349505.56    3.5725947    3.7323169    7.3240575 
      0.0695 -0.020665182 -0.022118327     6950    298.61769    61.044123    60.852494    94.067881 0.00059538569 -0.010884959   0.57120686   0.02541071 0.0064517667 -0.015462647   0.57884311    14654.089   -961598.13   -946944.04    103106.87   -334117.89   -738267.03   -969278.05     2920.125    4205.1843    554.60704    7679.9164   -1845.2744    349432.75    3.6292969    3.7888282    7.3713904 
        0.07 -0.021082709 -0.022346113     7000    297.73633    61.018098    60.838319    94.111859 -0.023649434 -0.0034495356   0.58491594   0.01541965 -0.0057305838  0.002567018   0.59941511    14610.838   -961550.49   -946939.65    103603.63   -334550.96   -738270.54   -969217.87    2935.2325    4138.1203    594.02966    7667.3824   -1835.0752    349365.67    3.6882265    3.8457931     7.426708 
      0.0705 -0.021336105 -0.022250311     7050     301.1589    61.002303    60.844281    94.155836 -0.015080318  -0.04590889   0.54708259 -0.0059316099  0.012617498  0.024164364   0.58020955    14778.794   -961691.33   -946912.53    103512.25   -334505.72   -738278.05   -969271.52    2894.3081     4117.977    567.90396     7580.189   -1599.1229    349472.69    3.7451254    3.8957095    7.4578686 
       0.071 -0.021420563 -0.022023407     7100    297.88167    60.997039    60.858401    94.199814 -0.0030928496   0.05487944   0.57888525  -0.01417291 0.0015607878 -0.015920161   0.55649884     14617.97   -961502.36   -946884.39    103142.96   -334058.41   -738257.87   -969173.33    2938.5713    4157.5328    574.86676    7670.9708    -2074.749    349686.87    3.7983612    3.9407456    7.4771412 
      0.0715 -0.021407699 -0.021959238     7150    300.29038     60.99784    60.862394    94.243791 -0.015595979 -0.030653275   0.58437487  0.024208765 -0.011184304   0.02087384   0.61046399    14736.173   -961591.63   -946855.45    103136.52   -334099.57   -738272.55    -969235.6    2845.9464    4206.1393    591.88928     7643.975   -1770.2956    349877.68     3.846932    3.9869044    7.5324785 
       0.072  -0.02136061 -0.022001256     7200    300.41836    61.000776    60.859779    94.287769  0.025086175 0.0078753266   0.59043882 -0.0053873753 -0.013583414  0.021472712   0.57591133    14742.453   -961569.92   -946827.47    103109.33   -334060.61   -738252.27   -969203.55    2896.7489    4168.9971    567.88243    7633.6285   -2050.8276    350042.75     3.889921    4.0352255    7.6142625 
      0.0725 -0.021331794 -0.022187842     7250     301.9693    61.002572    60.848168    94.331746 -0.0058142184  0.015912718   0.54177714 -0.017934702 -0.0020230733 -0.0078194928    0.5381371    14818.562   -961631.32   -946812.76    102954.07   -333904.74   -738263.64   -969214.32    2927.0529    4102.5663    553.38384    7583.0031   -1815.5297    350149.51    3.9322476    4.0849521    7.6834543 
       0.073  -0.02140299 -0.022639988     7300    299.71562    60.998134    60.820032    94.375724  0.036472688   0.05498194   0.60325358 -0.0086141686  0.017953423  0.026677918   0.56072917    14707.968   -961510.76    -946802.8    103051.76   -333946.24   -738263.44   -969157.92    2898.6052    4157.1361     591.4158    7647.1571   -2285.4123    350125.29    3.9788442    4.1381685    7.7389315 
      0.0735 -0.021691149 -0.023229716     7350    300.02676    60.980172    60.783333    94.419701 0.0029278089 -0.037560586    0.5725774  0.017715986 -0.013376935 -0.0039688065   0.59222446    14723.236   -961497.11   -946773.87    103316.03   -334183.94   -738256.87   -969124.78    2914.6159    4129.6903     583.3661    7627.6722   -1769.7002       349974    4.0316754     4.193777    7.7756703 
       0.074 -0.022099136 -0.023677783     7400    301.23216    60.954742    60.755451    94.463679 0.0030675534 -0.026314252   0.57091007  0.004056659 -0.0061207429 -0.015130488   0.58381607    14782.389    -961537.7   -946755.31    103415.53   -334367.65   -738278.85   -969230.97     2935.457    4191.5241    566.28444    7693.2655   -1801.6724    349830.44    4.0881235    4.2462635    7.8320143 
      0.0745 -0.022542721 -0.023762035     7450    302.03634    60.927092    60.750208    94.507656 -0.0002555071 -0.037221084   0.57018295 0.0056101417 -0.0025421903  0.019045663   0.59080885    14821.852   -961593.43   -946771.57    103498.67      -334434   -738264.06   -969199.39    2885.7257    4134.6111    585.62286    7605.9597   -1752.4677    349804.35    4.1426435    4.2933948     7.880847 
       0.075 -0.022907643  -0.02350732     7500    298.32244    60.904346    60.766058    94.551634 -0.0059733907 -0.0036871144   0.57744546 -0.034343502  0.010101435 -0.0018500676   0.58557983      14639.6    -961428.4    -946788.8    103592.47    -334451.8   -738279.12   -969138.45    2935.5014    4195.8653    578.68317    7710.0499   -1867.8673    349927.75     4.189861    4.3362269    7.9207126 
      0.0755 -0.022997283 -0.023072972     7550    300.17278    60.898758    60.793087    94.595611 -0.051418081 -0.0068695147   0.52582254 -0.028953144  0.013053461 -0.0073161303   0.55916248    14730.402   -961527.99   -946797.59    103403.16   -334221.65   -738261.23   -969079.72    2902.9578    4082.8878    565.87509    7551.7207   -1538.0704     350214.1    4.2270429    4.3750187     7.965164 
       0.076 -0.022883597 -0.022789502     7600    298.92328    60.905844    60.810727    94.639589  0.029138357  0.043894877   0.60355959  0.010150863 -0.0068931472 0.0079257297   0.56775097    14669.085   -961444.74   -946775.66    103018.85   -333865.91   -738235.66   -969082.72    2915.6783    4110.1821    612.12055     7637.981   -2225.8173    350519.36    4.2593877    4.4152964    8.0319169 
      0.0765 -0.022864491 -0.022947682     7650    300.61752    60.907035    60.800884    94.683566  0.015016358  0.049798087   0.61291378 0.0062397937 -0.010377277 0.0047448975   0.58172382    14752.226   -961493.93   -946741.71    102734.37   -333649.99   -738256.41   -969172.03    2932.1612    4143.8102    602.12651     7678.098   -2229.5525    350632.33    4.2977175     4.464471    8.0930625 
       0.077 -0.023010682 -0.023541496     7700    301.75833    60.897923    60.763932    94.727544 -0.016429936 -0.0025991507   0.56423625 -0.011741649  -0.01870202 -0.026335449   0.57695495    14808.209    -961541.5    -946733.3    102907.37   -333735.33   -738249.21   -969077.17    2889.3281    4074.7685     571.5709    7535.6674   -1793.5921    350529.54    4.3482984    4.5235342     8.161029 
      0.0775  -0.02324842 -0.024316803     7750    298.11383    60.883104    60.715685    94.771521  0.018842984  0.014643131    0.5859853 -0.020298542 0.0094711368 0.0041514385   0.57061972    14629.363   -961347.08   -946717.72    103347.65   -334124.26   -738252.21   -969028.82    2896.4905    4192.8472    592.40274    7681.7404   -2037.9025    350328.56    4.4116124     4.585878    8.2263226 
       0.078 -0.023410288 -0.024934426     7800    302.37125    60.873015    60.677251    94.815499 -0.046235765 -0.028844859   0.60002901 -0.0039666471 -0.015434704 0.0067956524   0.63845275    14838.287   -961535.27   -946696.99    103540.75   -334404.69   -738239.42   -969103.36    2868.9131    4113.6879    585.48036    7568.0813   -1726.9459    350211.21    4.4782506    4.6427039    8.2799608 
      0.0785 -0.023286265 -0.025222434     7850    299.42817    60.880745    60.659329    94.859476 0.0079206965 -0.037505425   0.53653394  0.017723882 -0.013966941  -0.02277763   0.55551097    14693.861   -961372.87   -946679.01    103599.69   -334367.25   -738251.97   -969019.54    2910.1325    4152.1523    584.37655    7646.6613   -1667.7332    350314.64    4.5339845    4.6911782    8.3102419 
       0.079 -0.022997504 -0.025152451     7900    301.83203    60.898744    60.663684    94.903454  -0.01881133 -0.0086030164    0.5687528 -0.0033204209  -0.01726822 -0.0043522107   0.58337145    14811.826   -961475.57   -946663.75    103504.05   -334361.16    -738233.3    -969090.4    2933.2228    4110.9791    570.62766    7614.8295    -1780.865    350605.83    4.5769781    4.7340676    8.3557856 
      0.0795 -0.022708276 -0.024872644     7950    302.33706    60.916773    60.681096    94.947431 -0.0027724324 -0.0065122821   0.59415565 -0.028081861  0.021631569   0.01064428   0.60222835    14836.609   -961504.39   -946667.78    103265.14   -334125.97   -738222.74   -969083.57    2850.1783    4162.3354    566.67171    7579.1855   -1924.0758    350972.85    4.6161878    4.7745922    8.4033327 
        0.08 -0.022647798 -0.024554858     8000    301.09101    60.920542    60.700871    94.991409  0.049449454 -0.023389154   0.59936447 0.0088217355 0.0045160063 -0.024598728     0.591504    14775.462   -961452.91   -946677.45    102989.26   -333810.53   -738225.37   -969046.64    2960.5363    4076.8298    556.36853    7593.7347   -2057.4875    351271.58    4.6601032    4.8189381    8.4597508 
      0.0805 -0.022850482 -0.024365611     8050    299.54391    60.907909    60.712648    95.035386  0.037229148  0.031675828   0.58313761 -0.0032272155 -0.024027218 0.0028687812   0.55033294    14699.541      -961381   -946681.46    103033.57   -333750.58   -738215.93   -968932.94    2904.8567    4086.2377    560.84375    7551.9381   -2145.0533    351429.49    4.7112916    4.8713859     8.498481 
       0.081 -0.023181272 -0.024502278     8100    301.38454     60.88729    60.704143    95.079364 -0.014328011  0.045706199     0.601035 0.0022106514  0.014211372  0.012510365   0.58857709    14789.867   -961451.02   -946661.15    103086.31   -333922.31   -738238.07   -969074.07     2882.806    4173.8401    566.40017    7623.0463   -2080.4776    351423.86    4.7721101    4.9309909    8.5185271 
      0.0815 -0.023631568 -0.024953015     8150    302.13027    60.859222    60.676094    95.123341  -0.02041096 -0.040347682   0.58399207 -0.022333977  0.014486604 -0.0098475587   0.61657703    14826.462    -961485.5   -946659.04     103204.3   -334068.81   -738221.59    -969086.1    2896.2793    4126.9926    577.32924    7600.6011   -1721.3041    351261.95    4.8412392    4.9952867    8.5716253 
       0.082 -0.024122149 -0.025400327     8200    299.15315    60.828643    60.648259    95.167319  0.030490756  0.016492252   0.55990377 -0.024876021 0.0070250102  0.011628694   0.53879056    14680.365   -961349.25   -946668.88    103686.84   -334388.97   -738221.04   -968923.17    2887.3155     4127.975    558.63403    7573.9246   -1996.5023    351086.63    4.9105506    5.0585016    8.6790737 
      0.0825  -0.02432528 -0.025557713     8250    298.98911    60.815981    60.638465    95.211296 -0.058440257 -0.020287483   0.56204395  0.013417239  0.011270178 -0.0050732829   0.60314295    14672.315   -961322.03   -946649.72    103733.76   -334429.58   -738210.65   -968906.47    2850.8236    4189.8481    543.76275    7584.4345   -1589.9867    351119.05     4.967227    5.1151426    8.7556381 
       0.083 -0.024239764 -0.025397897     8300    298.09308    60.821312     60.64841    95.255274 -0.015906238 -0.032928987   0.53968466 0.0057983749 -0.017704818 -0.0035909003   0.56525095    14628.344   -961242.87   -946614.52    103581.87      -334327   -738217.12   -968962.25    2925.1602    4216.0086    578.21558    7719.3844   -1614.7691    351369.64    5.0107628     5.165901    8.7827036 
      0.0835 -0.024100731 -0.025132165     8350    302.61252    60.829978    60.664946    95.299251  0.032406154  0.045873113   0.57037709 -0.010452348 -0.0010353434 -0.0031495915   0.53170479    14850.127   -961448.19   -946598.06    103461.65   -334305.42   -738227.87   -969071.64    2944.4438    4110.1824    568.82367    7623.4499   -2133.9135    351677.81    5.0544264    5.2128998    8.8238587 
       0.084 -0.023885953 -0.025079905     8400    301.79027    60.843365    60.668198    95.343229 -0.021565434  0.037046239   0.54871156 -0.0020018366  0.019819211  0.014883044   0.54505158    14809.777      -961415   -946605.22       103457   -334150.03   -738219.92   -968912.95      2860.45    4089.3391    548.16378    7497.9529   -1856.0486    351936.39    5.1072126    5.2579561    8.8820568 
      0.0845 -0.023599751 -0.025307246     8450     299.8017    60.861205    60.654051    95.387206 -0.025058582 0.0016473828   0.53621534 0.0088384913 -0.048899127 -0.0016300278   0.55512878    14712.192   -961318.84   -946606.65    103347.34   -334053.33   -738213.58   -968919.56    2957.5651     4125.317    517.83466    7600.7167   -1686.9945    352119.83    5.1665867    5.3055659    8.9445393 
       0.085 -0.023470561 -0.025665562     8500    299.24416    60.869258    60.631753    95.431184  0.017068841  0.031801188   0.57061783  0.018892239  0.010879799  0.011774945   0.54801483    14684.831   -961277.78   -946592.95    103380.71   -334009.22   -738196.92   -968825.43    2863.1311    4111.5025    573.01351    7547.6471   -2037.9566    352199.26     5.225219    5.3618185    8.9937253 
      0.0855 -0.023605552 -0.026101522     8550    301.68383    60.860843    60.604624    95.475161  0.044649062  0.016776902   0.56836396 -0.016845141 -0.014933647 0.0035153932   0.53963748    14804.553   -961352.65    -946548.1    103327.11   -334024.92   -738222.57   -968920.39    2878.5621    4102.6855    586.48897    7567.7366   -2071.8478    352155.22    5.2833408    5.4250326    9.0467291 
       0.086 -0.023988214 -0.026542453     8600    301.49669    60.836991    60.577185    95.519139 -0.017801046 -0.073911385   0.54842338 0.0030544818 -0.0064009082 -0.024507943   0.59789826     14795.37   -961318.36   -946522.99    103423.35    -334117.3   -738233.33   -968927.28    2855.7626    4195.2191     557.9337    7608.9154   -1502.4622     352019.9    5.3485328    5.4893508    9.1082577 
      0.0865 -0.024515565  -0.02677961     8650    298.23526     60.80412    60.562427    95.563116  0.045072784 -0.0033814101   0.60431891 -0.026460337 -0.0096943702 -0.00068217735   0.58701418    14635.322   -961164.59   -946529.26    103699.08   -334325.48   -738191.99    -968818.4    2893.1658    4211.9155    548.72892    7653.8102   -2125.2086    351905.93    5.4173298    5.5529581    9.1842793 
       0.087 -0.024933069  -0.02669582     8700    301.29881    60.778096    60.567642    95.607094 -0.039902624 -0.00093350566   0.57022601 -0.014521102 -0.0036495894  0.019182549   0.59310692    14785.659   -961297.68   -946512.02    103548.12   -334247.79   -738214.64   -968914.32    2883.3535    4173.0386    560.24272    7616.6349   -1741.5573    351947.49    5.4779206     5.612406    9.2355694 
      0.0875 -0.025187027 -0.026378409     8750    302.57741    60.762267    60.587394    95.651071 0.0075135815 -0.012511541    0.5555174 -0.016074566 0.00072609762 -0.0082043731   0.55916162    14848.404   -961369.62   -946521.22    103321.24   -334054.71   -738211.77   -968945.24    2883.9723    4136.0611    555.57935    7575.6128   -1811.0681    352132.47    5.5306678    5.6648652    9.2679322 
       0.088 -0.025394679 -0.026057969     8800    298.95934    60.749323    60.607334    95.695049  0.006192364 -0.0047905522   0.64345579 0.0070537481  0.013241766 -0.012192722   0.64369682    14670.855   -961212.72   -946541.86    103206.67   -333869.04   -738215.93    -968878.3    2922.3068    4178.2011    565.08071    7665.5886   -2121.4166    352335.25    5.5840852    5.7133403    9.3207201 
      0.0885  -0.02559942 -0.025947177     8850    298.78317    60.736561    60.614229    95.739026 -0.0076459745  0.052252901   0.61644058 0.0019580129 -0.027570982 0.0075941299   0.59846036    14662.209   -961218.23   -946556.02    103228.88   -333838.76   -738195.11   -968804.99    2900.3258    4151.1336    535.30382    7586.7632   -2174.6772    352463.21    5.6406566     5.764219    9.3868876 
[...]
      0.9775 -0.083229356 -0.085077214    97750    302.18065    57.144359    56.934632    173.93103 0.0048179729  0.014789966   0.30799037 -0.0094838916 -0.019776665 -0.00047517115   0.30072175    14828.934   -956002.77   -941173.84    109689.95   -337344.47   -735440.01   -963094.54    2669.0123    3811.7444     611.0113     7091.768   -1077.7146    565883.39    637.06576    719.57754    708.43817 
       0.978 -0.083480797 -0.084871505    97800      298.449    57.128686    56.947433    173.97501 -0.0096171131  0.013012872   0.27866486 -0.010851247 0.0096289495    0.0030709   0.27884491     14645.81   -955842.65   -941196.84    109727.53   -337355.54   -735414.28   -963042.29    2756.8067    3819.0318    623.80222    7199.6408    -927.9073    565998.46    637.82195    720.54088    709.31624 
      0.9785 -0.083702559 -0.084808202    97850    299.07564    57.114863    56.951372    174.01898  0.010310237  0.005693561   0.25864815 -0.019050494 0.0044083429 -0.006109365   0.25317695    14676.562   -955867.25   -941190.69    109869.99   -337448.45   -735409.97   -962988.43    2739.0739    3783.1226    598.98184    7121.1784   -903.53466     566043.7    638.59871    721.50123    710.29843 
       0.979 -0.083897117 -0.084934548    97900    298.50308    57.102736     56.94351    174.06296 -0.0018860174 0.0066932902   0.25776265 -0.036723115 0.0050851035 0.0070004653    0.2636926    14648.464   -955807.11   -941158.64    109948.08   -337473.12   -735421.95   -962946.99    2666.8085    3880.0805    592.98831    7139.8773   -863.78789    565988.38    639.40797    722.47898    711.19304 
      0.9795 -0.084095502 -0.085214006    97950    299.17492     57.09037     56.92612    174.10694  0.010147898 0.0099676129    0.2795423 -0.012411162  0.016895324 -0.00029539694   0.27192035    14681.433    -955821.2   -941139.76    109965.15    -337449.2   -735413.54    -962897.6    2676.2906    3777.9062    622.20339    7076.4002   -985.79756    565835.93    640.23351    723.46668    712.14735 
        0.98 -0.084208776 -0.085605099    98000    299.23405    57.083309    56.901782    174.15092 -0.011570277 0.0063197562   0.25667804 -0.013452916 0.0064475656  0.011529718   0.26181043    14684.335   -955783.59   -941099.26    109634.13    -337182.7   -735431.02   -962979.58    2702.0392    3866.4429     627.5113    7195.9934   -827.13224    565666.91    640.99844     724.4806    713.23243 
      0.9805 -0.084173678 -0.086238622    98050    301.49622    57.085497    56.862359    174.19489 -0.0049538128  0.015641878   0.28692285 -0.010481108 -0.013185975 -0.016441076   0.28507344    14795.347   -955891.52   -941096.17    109826.87    -337371.7   -735427.49   -962972.31    2616.4318    3860.0177     604.3424    7080.7918   -979.06378    565439.42    641.73093     725.5231    714.41681 
       0.981 -0.083978933 -0.086852008    98100    302.15919    57.097636    56.824189    174.23887 -0.014741804 -0.034090796   0.28378601 -0.029649782 0.0079951057 -0.0034924613   0.31326529    14827.881   -955931.21   -941103.33    110165.77   -337749.65   -735419.86   -963003.75    2599.3202    3835.6198    637.59932    7072.5393   -772.93664    565322.69    642.57396    726.53049    715.38886 
      0.9815 -0.083722834  -0.08698697    98150    300.68739    57.113599     56.81579    174.28285 0.0016248304 -0.039612968   0.24131958 0.0012989759 0.0017052078 -0.0089236765    0.2632324    14755.655   -955866.69   -941111.03    110641.34   -338185.27   -735423.02   -962966.96    2662.1171    3823.3725    614.77674    7100.2664   -668.90844    565539.87    643.52034    727.43984    716.37399 
       0.982 -0.083380906  -0.08662631    98200    302.76449    57.134912    56.838234    174.32683  -0.01280858 -0.014987069   0.24320879 -0.0097186463 -0.0098804648 -0.0030407494   0.25828537    14857.585   -955984.54   -941126.95    110567.99   -338156.37   -735440.47   -963028.85     2587.371    3820.3338    636.61052    7044.3153   -708.65412    566117.21    644.42057    728.32923    717.12236 
      0.9825 -0.082919134 -0.086150818    98250    303.32975    57.163696    56.867823     174.3708 -0.016753465  0.027665173   0.23980131 -0.021320189 -0.0064487986 -0.0092457958   0.24112739    14885.324   -956035.74   -941150.41    109989.76   -337637.37   -735437.16   -963084.76    2652.7301    3799.5742    596.72047    7049.0248   -824.78169    566840.23    645.22464    729.25636    717.78504 
       0.983 -0.082529815 -0.085874027    98300    300.90625    57.187963    56.885047    174.41478  0.029439895 0.0045958256   0.26862045 -0.013117195 0.0039702479 -0.0070497957   0.25392785    14766.395   -955957.42   -941191.03    109484.51   -337107.18   -735429.86   -963052.53    2669.9783     3806.028     619.1047     7095.111   -995.66137    567395.69    645.98989     730.2198    718.95834 
      0.9835 -0.082361475 -0.085906881    98350    300.62814    57.198456    56.883003    174.45876  0.011712561  0.029530941   0.30137238 -0.018660181 -0.0097816425 -0.0034256158   0.28359459    14752.748   -955980.54   -941227.79    109300.16   -336961.96   -735446.92   -963108.72    2644.0862    3860.5391    623.55383    7128.1791   -1127.1186    567622.49    646.81542    731.22529    720.13376 
       0.984 -0.082458821 -0.086259774    98400    300.68525    57.192388    56.861043    174.50274 0.0080845338 -0.00040668145   0.28299463 -0.011281785  0.011980838 -0.0037038388   0.28077677     14755.55   -956020.45    -941264.9    109626.46   -337195.29   -735448.57    -963017.4    2635.0099    3750.0992    611.83975    6996.9488   -956.23812    567486.18    647.72514    732.27343    721.32843 
      0.9845 -0.082732536   -0.0867197    98450    298.03411    57.175327    56.832422    174.54671 -0.0064741725 -0.0021503157   0.25807673 -0.0057112618 0.0049090172  0.013626133   0.26379758     14625.45   -955884.33   -941258.88    110072.46   -337580.27   -735448.11   -962955.91    2691.8875    3755.6166    624.07358    7071.5776   -820.63408    567174.24    648.66672    733.35912     722.4117 
       0.985 -0.083028697 -0.087135965    98500    301.69383    57.156866    56.806518    174.59069 -0.0022791084 0.0061661658   0.28079997 -0.0075324709  0.010045046 -0.008512276   0.28018691    14805.044   -956045.63   -941240.58    110046.53   -337779.34   -735458.66   -963191.47    2714.3121     3780.707    650.82207    7145.8412   -936.54751    566875.47     649.6044    734.45185    723.07225 
      0.9855 -0.083187156 -0.087535865    98550    298.56383    57.146989    56.781633    174.63467 -0.017630635 -0.031661147   0.27544167 -0.039473394 -0.0091503515  0.011483668   0.30906544    14651.446   -955899.77   -941248.32    110128.34   -337659.79   -735468.54   -962999.99    2694.6887    3794.5551     610.9791     7100.223    -743.9753    566671.92    650.53143    735.48911    723.70766 
       0.986  -0.08319872 -0.087802742    98600    299.32256    57.146268    56.765025    174.67865  0.017222105  0.032384461   0.26689985 -0.0066412751 0.0072963992  0.014234806   0.24430123    14688.678   -955919.51   -941230.83     109775.6   -337343.55   -735457.82   -963025.77    2736.6363    3731.2505      638.373    7106.2598   -1041.2251     566641.7    651.40787    736.50156    724.58602 
      0.9865 -0.083281525 -0.088004968    98650    302.45447    57.141107    56.752441    174.72262 -0.0099354531 -0.022047843   0.29230025 -0.002570048  0.004625874 4.1262652e-05   0.30860645    14842.371   -956056.57    -941214.2    109685.34   -337338.97   -735478.73   -963132.35     2651.146    3802.4157     622.2224    7075.7841   -856.37619    566607.53    652.25858    737.57438    725.47377 
       0.987 -0.083351576  -0.08821736    98700     301.9202    57.136741    56.739224     174.7666 -0.027105078  0.019630302   0.28415737  -0.01963538 0.0029919943 -0.012977307   0.29361586    14816.153   -956051.74   -941235.59    109920.03   -337562.75   -735511.98   -963154.71    2665.5922    3756.7338    680.63495    7102.9609   -910.21498    566574.85    653.10556    738.67979    726.42661 
      0.9875 -0.083176815 -0.088447067    98750    299.44541    57.147634     56.72493    174.81058  -0.01101801 -0.015939326   0.26563546 -0.015869572 -0.0034949469 -0.0044453145   0.28066763    14694.707   -955946.11    -941251.4    110023.78   -337498.09   -735488.23   -962962.54    2660.5041    3755.7129    600.21408    7016.4311   -785.18997    566682.67    653.96166    739.73466    727.65739 
       0.988 -0.082843038 -0.088603898    98800    298.79541    57.168439     56.71517    174.85456 2.0119413e-06 0.0022485557   0.29043762 0.0010743388  0.015729216 -0.0058032556   0.29077849     14662.81   -955910.72   -941247.91    109883.82   -337492.56   -735457.21   -963065.95    2705.1403    3810.5354    639.55071    7155.2264   -962.86926    566934.03    654.86149    740.72502    728.49891 
      0.9885 -0.082490688 -0.088560313    98850    299.77052    57.190402    56.717883    174.89853 -0.0088695214 -0.041261353    0.2756245 -0.021230676 0.0063372085 0.0040011454   0.30450303    14710.661   -955936.52   -941225.86    109982.48    -337467.8   -735484.62   -962969.94    2639.8988    3762.3273     631.1946    7033.4207   -741.81636    567321.61    655.75719    741.66382    729.40993 
       0.989 -0.082108823 -0.088264275    98900    301.62462    57.214204    56.736305    174.94251 0.0044466716   0.02342474   0.27987968 -0.014700686 -0.012065342  0.011644527   0.26923624    14801.648   -956003.38   -941201.73    109668.38   -337257.44   -735472.49   -963061.56    2696.2497    3737.8428    624.08613    7058.1787   -1012.4224    567884.83    656.61422    742.59175    730.41725 
      0.9895 -0.081952944 -0.087969312    98950    300.83213     57.22392     56.75466    174.98649  0.024969966 -0.0026890525    0.2875954 0.0089606841 -0.0036842037 -0.021197109   0.28041158    14762.758   -955971.78   -941209.03    109524.66   -337149.99   -735471.24   -963096.56    2669.2794    3844.1473    611.34983    7124.7765   -1019.4138    568307.84    657.45108    743.59342    731.44459 
        0.99 -0.082209144 -0.087815019    99000    300.50743    57.207951    56.764261    175.03047  0.025479632 0.0067131577   0.27611366 -0.0079839958 0.0080361603 -0.0025564102   0.26130001    14746.824   -955969.78   -941222.96    109501.02   -337097.97   -735465.65    -963062.6    2711.3536     3741.852    639.61422    7092.8198   -1014.2494    568388.17    658.32815    744.64142    732.46225 
      0.9905 -0.082751958 -0.087947462    99050    300.13661    57.174116     56.75602    175.07444 0.0085594121  0.019278504   0.31236577  -0.01703131 0.0078068861 -0.0017532348   0.30036467    14728.627   -955964.56   -941235.93    109527.56   -337055.42   -735511.07   -963038.93    2696.6867    3754.7298     622.9491    7074.3657   -1119.1831    568112.24    659.32163    745.66934     733.8735 
       0.991 -0.083226214 -0.088383067    99100    299.77478    57.144555    56.728913    175.11842 -0.034305107 0.0053984236   0.28382938 -0.014694256 -0.013328757 -0.011279874   0.30284864     14710.87   -955949.51   -941238.64    109618.63   -337117.79   -735510.61   -963009.77    2698.1954    3766.2464     595.8147    7060.2565   -838.63046    567689.87    660.38111    746.70842    735.09941 
      0.9915  -0.08356604 -0.088911309    99150      300.552    57.123372    56.696041     175.1624 0.0055977084 -0.00027704626   0.31026892 -0.020316448 0.0021220092 -0.0020889526   0.30969954    14749.011   -955970.77   -941221.76    109901.88   -337466.19   -735500.94   -963065.25    2738.1606     3757.816    598.49877    7094.4754    -1038.209    567293.04    661.35622    747.81053      735.988 
       0.992 -0.083629133 -0.089188018    99200    301.57394     57.11944    56.678821    175.20638  -0.02285502 -0.021556228   0.27597894  -0.01217614 -0.0090654074 0.0051356548   0.29947579    14799.161   -956024.27   -941225.11    110076.41   -337630.86   -735507.91   -963062.36    2627.2478    3764.3097    646.53776    7038.0953   -761.79848    567224.08    662.21269    748.91092    736.86664 
      0.9925 -0.083379599 -0.089187095    99250    301.07299    57.134994    56.678879    175.25035 -0.014786486  0.019387404   0.29675722 -0.010474947 -0.0044088021 -0.011628259   0.29727733    14774.577    -956019.9   -941245.32    109788.89   -337421.48   -735523.18   -963155.77    2721.9155    3824.7894    589.17126    7135.8762   -991.39121    567521.52    663.06022      749.974    737.84773 
       0.993  -0.08305866  -0.08929313    99300    300.73457    57.154999     56.67228    175.29433 0.00029554095  0.011482171   0.25385628 -0.019300995 0.0058068005 -0.020005358   0.25298435     14757.97   -956033.24   -941275.27    109539.51   -336976.09   -735545.46   -962982.04    2621.2546    3705.0994    622.44456    6948.7986   -873.86788    567796.59    664.05131    751.00887    738.75441 
      0.9935 -0.082774138 -0.089656757    99350    300.29662    57.172734    56.649652    175.33831 0.0091455053  0.023823991   0.30536538 -0.0044782747  0.010077653 -0.0056214354   0.28995389    14736.479    -956003.5   -941267.02    109445.88   -336938.25   -735547.66   -963040.02    2651.9354    3772.3685    612.22379    7036.5277   -1113.0352    567888.43      665.204    751.98091    739.88414 
       0.994 -0.082555007 -0.090263008    99400    300.82132    57.186392    56.611926    175.38229 -0.00043706586  0.010574927   0.29173674 -0.013483838 0.0021567944 -0.002868366   0.28784277    14762.227   -956016.92   -941254.69    109382.34   -337010.76   -735544.85   -963173.26    2723.1534    3809.1094    624.08236    7156.3452   -993.09021    567788.19     666.3198    753.00338    740.94243 
      0.9945 -0.082578607  -0.09095414    99450    301.38365    57.184921    56.568917    175.42626  0.014377268 -0.00024037544   0.28098625 -0.011707856 -0.016134889 0.0074970661   0.27668043    14789.823   -956057.91   -941268.09    109357.16   -336891.68    -735505.7   -963040.22    2633.0407    3732.1427    617.12404    6982.3074   -970.87964    567484.51    667.22244    754.15481    741.78361 
       0.995 -0.082871554 -0.091479078    99500    297.55467    57.166661    56.536251    175.47024  0.020963008 -0.016465762   0.31840919 -0.0074151845 0.00083872384 0.0017477702   0.31809498    14601.923   -955880.04   -941278.12    109714.13   -337188.52   -735458.49   -962932.88    2654.2243    3767.9878    630.62967    7052.8417   -1062.2796    567117.84    668.01404    755.35201    742.75595 
      0.9955 -0.083125854 -0.091824732    99550    297.13296     57.15081    56.514741    175.51422 -0.048025401 -0.00059116137   0.28073198 -0.022934332 0.0013079172 0.0036511143    0.3104193    14581.228    -955810.5   -941229.27    109693.51   -337164.14   -735481.52   -962952.14    2650.1796    3860.4458    631.01453    7141.6399   -763.60037    566886.93    668.94685    756.44996    744.07779 
       0.996 -0.083084002 -0.092111466    99600    299.49419    57.153419    56.496898     175.5582 0.0011432529 -0.015668694   0.27925205 -0.0022746623 -0.0032658442 -0.0018992214   0.28698612    14697.101   -955882.96   -941185.86    110055.81   -337526.13   -735532.26   -963002.58    2657.9106    3848.5608    613.15175    7119.6232   -870.88283    566875.82    670.06508    757.47507    745.32782 
      0.9965 -0.082798189 -0.091952389    99650    298.73786    57.171234    56.506798    175.60217 0.0083125019 -0.024476793   0.28205047  -0.01625195 -0.0040912827 0.0057735963   0.29313117    14659.986   -955808.58    -941148.6    110039.69   -337470.48   -735531.45   -962962.23    2688.6244    3823.0967    641.92718    7153.6483   -874.69752    567293.95    671.11254    758.50994    746.51371 
       0.997 -0.082476636 -0.091427407    99700     301.5069    57.191277    56.539467    175.64615 0.00037821448 0.0017287412   0.29895664 -0.026544526  -0.01606712 0.0068434899   0.30294629    14795.871   -955928.04   -941132.16    109603.89   -337145.47   -735519.44   -963061.02     2712.782    3816.7793    603.41847    7132.9798   -990.42224    567963.13    671.95958    759.62404    747.74946 
      0.9975  -0.08228595 -0.090928228    99750    299.14494    57.203163     56.57053    175.69013 -0.0029709314 -0.005522069    0.2793648 -0.002825222 -0.0069216939 -0.0098316268   0.28442557    14679.962   -955819.22   -941139.26    109659.37   -337039.87   -735481.24   -962861.74    2655.1223    3752.9984    634.40102    7042.5217   -891.09893    568535.59    672.78268     760.7455    749.19613 
       0.998 -0.082289786 -0.090454541    99800    301.26762    57.202924    56.600007    175.73411  0.026674098 0.0022531132   0.31480559 0.00050073993 -0.017881588 0.0065294401   0.30288695    14784.129   -955910.29   -941126.17    109629.12   -337219.28   -735475.96   -963066.12    2700.2628    3815.8423    639.72029    7155.8254    -1130.793    568971.84     673.6909    761.86565    750.44545 
      0.9985 -0.082474175 -0.090087735    99850    302.08663    57.191431    56.622833    175.77808 -0.0033087851 0.0050903356   0.28191363 -0.010822437  0.012179846 -0.0056812578   0.28270127     14824.32   -955962.57   -941138.25    109585.15   -337092.86   -735478.34   -962986.05    2693.8158    3723.2544    606.40464    7023.4748   -933.28459    569229.35    674.63276    763.01504    751.34225 
       0.999 -0.082668641 -0.090028898    99900    299.49938    57.179309    56.626494    175.82206 -0.0014013553   0.01039467   0.28435897 -0.019599957 -0.0091894264  0.012180685   0.28333406    14697.356    -955857.5   -941160.15    109703.08    -337216.6   -735503.88   -963017.41    2697.4986    3805.5885    656.82182    7159.9089   -965.05398    569287.89    675.57364    764.19047    752.34464 
      0.9995  -0.08273435 -0.090096683    99950    301.12864    57.175214    56.622276    175.86604 -0.013020185 -0.0052298117   0.28972616 -0.026850844 0.0069406697  0.017242294   0.30423157    14777.309   -955954.66   -941177.35    109907.27    -337407.7   -735545.16   -963045.58    2682.9545    3803.1055    604.85548    7090.9155   -893.08715    569347.08    676.49132    765.36522    753.29327 
           1 -0.082556924 -0.090156165   100000    300.32018    57.186273    56.618575    175.91002 -0.022639422 0.0084498883   0.27874193 -0.010811806 0.0037093007  0.008452574    0.2881559    14737.635   -955937.73   -941200.09    109999.36   -337423.79   -735556.25   -962980.69    2696.8036    3736.0251    610.12825    7042.9569   -870.30971    569562.38    677.40721    766.48669    754.36781 
Loop time of 9508.38 on 6 procs for 100000 steps with 16464 atoms

Performance: 0.909 ns/day, 26.412 hours/ns, 10.517 timesteps/s
138.9% CPU use with 1 MPI tasks x 6 OpenMP threads

MPI task timing breakdown:
Section |  min time  |  avg time  |  max time  |%varavg| %total
---------------------------------------------------------------
Pair    | 3716.9     | 3716.9     | 3716.9     |   0.0 | 39.09
Bond    | 225.65     | 225.65     | 225.65     |   0.0 |  2.37
Kspace  | 1853.2     | 1853.2     | 1853.2     |   0.0 | 19.49
Neigh   | 288.3      | 288.3      | 288.3      |   0.0 |  3.03
Comm    | 21.906     | 21.906     | 21.906     |   0.0 |  0.23
Output  | 6.6936     | 6.6936     | 6.6936     |   0.0 |  0.07
Modify  | 3383       | 3383       | 3383       |   0.0 | 35.58
Other   |            | 12.74      |            |       |  0.13

Nlocal:        16464.0 ave       16464 max       16464 min
Histogram: 1 0 0 0 0 0 0 0 0 0
Nghost:        21161.0 ave       21161 max       21161 min
Histogram: 1 0 0 0 0 0 0 0 0 0
Neighs:    1.34072e+06 ave 1.34072e+06 max 1.34072e+06 min
Histogram: 1 0 0 0 0 0 0 0 0 0
FullNghs:  3.44816e+06 ave 3.44816e+06 max 3.44816e+06 min
Histogram: 1 0 0 0 0 0 0 0 0 0

Total # of neighbors = 3448163
Ave neighs/atom = 209.43653
Ave special neighs/atom = 4.6666667
Neighbor list builds = 4065
Dangerous builds = 0

unfix 3
unfix 4

print "all done!"
all done!
Total wall time: 2:38:42
